fubar                                                                   
SP        UPBE1PBE                                                    6-311+G(d,p)        
Number of atoms                            I                1
Info1-9                                    I   N=           9
          11          10           0           0           0         110
           1          18       -1302
Full Title                                 C   N=           1
fubar       
Route                                      C   N=           3
#PBE1PBE/6-311+G(d,p) scf=tight     
Charge                                     I                0
Multiplicity                               I                2
Number of electrons                        I                5
Number of alpha electrons                  I                3
Number of beta electrons                   I                2
Number of basis functions                  I               22
Number of independent functions            I               22
Number of point charges in /Mol/           I                0
Number of translation vectors              I                0
Atomic numbers                             I   N=           1
           5
Nuclear charges                            R   N=           1
  5.00000000E+00
Current cartesian coordinates              R   N=           3
  0.00000000E+00  0.00000000E+00  0.00000000E+00
Number of symbols in /Mol/                 I                0
Int Atom Types                             I   N=           1
           0
Force Field                                I                0
Atom Types                                 C   N=           1
            
MM charges                                 R   N=           1
  0.00000000E+00
Integer atomic weights                     I   N=           1
          11
Real atomic weights                        R   N=           1
  1.10093053E+01
Atom fragment info                         I   N=           1
           0
Atom residue num                           I   N=           1
           0
Nuclear spins                              I   N=           1
           3
Nuclear ZEff                               R   N=           1
 -2.75000000E+00
Nuclear ZNuc                               R   N=           1
  5.00000000E+00
Nuclear QMom                               R   N=           1
  4.05900000E+00
Nuclear GFac                               R   N=           1
  2.68863700E+00
MicOpt                                     I   N=           1
          -1
Number of residues                         I                0
Number of secondary structures             I                0
SymInf integers                            I   N=          26
           1           8           1           1           1           1
          -1          -1          -1           1          -1          -1
          -1           1          -1          -1          -1          -1
           1           1           1          -1           1           1
           1          -1
RotTr to input orientation                 R   N=          12
  0.00000000E+00  0.00000000E+00 -1.00000000E+00  0.00000000E+00  1.00000000E+00
  0.00000000E+00  1.00000000E+00  0.00000000E+00  0.00000000E+00  0.00000000E+00
  0.00000000E+00  0.00000000E+00
Number of contracted shells                I                6
Number of primitive shells                 I               13
Pure/Cartesian d shells                    I                0
Pure/Cartesian f shells                    I                0
Highest angular momentum                   I                2
Largest degree of contraction              I                6
Shell types                                I   N=           6
           0          -1          -1          -1          -1          -2
Number of primitives per shell             I   N=           6
           6           3           1           1           1           1
Shell to atom map                          I   N=           6
           1           1           1           1           1           1
Primitive exponents                        R   N=          13
  2.85889000E+03  4.28140000E+02  9.75282000E+01  2.79693000E+01  8.21577000E+00
  1.11278000E+00  1.32415000E+01  3.00166000E+00  9.12856000E-01  3.15454000E-01
  9.88563000E-02  3.15000000E-02  4.01000000E-01
Contraction coefficients                   R   N=          13
  2.15374907E-03  1.65822928E-02  8.21869644E-02  2.76617880E-01  6.29315727E-01
  1.73769925E-01  1.17442942E-01  9.18001549E-01 -2.65104870E-03  1.00000000E+00
  1.00000000E+00  1.00000000E+00  1.00000000E+00
P(S=P) Contraction coefficients            R   N=          13
  0.00000000E+00  0.00000000E+00  0.00000000E+00  0.00000000E+00  0.00000000E+00
  0.00000000E+00  4.18099989E-02  2.36574994E-01  8.16213978E-01  1.00000000E+00
  1.00000000E+00  1.00000000E+00  0.00000000E+00
Coordinates of each shell                  R   N=          18
  0.00000000E+00  0.00000000E+00  0.00000000E+00  0.00000000E+00  0.00000000E+00
  0.00000000E+00  0.00000000E+00  0.00000000E+00  0.00000000E+00  0.00000000E+00
  0.00000000E+00  0.00000000E+00  0.00000000E+00  0.00000000E+00  0.00000000E+00
  0.00000000E+00  0.00000000E+00  0.00000000E+00
Num ILSW                                   I              100
ILSW                                       I   N=         100
           1           0           0           0           2           0
           0           0           0           0        1009          -1
           5           0           0           0           0           0
           0           0           0           0           0           0
           1           0           0           0           0           0
           0           0      100000           0          -1           0
           0           0           0           0           0           0
           0           0           0           1           0           0
           0 -2000000000           1           0           0           0
           0           1           4          52           0           0
           0           0          13           0           0           0
           0           0           0           1           0           1
           0           0           0           0           0           0
           0           0           0           0           0           0
           0           0           0           0           0           0
           0           0           0           0           0           0
           0           0           0           0
Num RLSW                                   I               52
RLSW                                       R   N=          52
  7.50000000E-01  7.50000000E-01  1.00000000E+00  1.00000000E+00  2.50000000E-01
  0.00000000E+00  0.00000000E+00  1.00000000E+00  0.00000000E+00  0.00000000E+00
  0.00000000E+00  0.00000000E+00  1.00000000E+00  0.00000000E+00  0.00000000E+00
  0.00000000E+00  0.00000000E+00  1.00000000E+00  0.00000000E+00  0.00000000E+00
  0.00000000E+00  0.00000000E+00  1.00000000E+00  0.00000000E+00  0.00000000E+00
  0.00000000E+00  0.00000000E+00  1.00000000E+00  0.00000000E+00  0.00000000E+00
  0.00000000E+00  0.00000000E+00  1.00000000E+00  0.00000000E+00  0.00000000E+00
  0.00000000E+00  0.00000000E+00  0.00000000E+00  1.00000000E+00  1.00000000E+00
  0.00000000E+00  1.00000000E+00  0.00000000E+00  0.00000000E+00  0.00000000E+00
  0.00000000E+00  0.00000000E+00  0.00000000E+00  0.00000000E+00  0.00000000E+00
  0.00000000E+00  0.00000000E+00
MxBond                                     I                1
NBond                                      I   N=           1
           0
IBond                                      I   N=           1
           0
RBond                                      R   N=           1
  0.00000000E+00
Virial Ratio                               R      2.002654155926793E+00
SCF Energy                                 R     -2.461668400611262E+01
Total Energy                               R     -2.461668400611262E+01
S**2                                       R      7.529107724849169E-01
S**2 after annihilation                    R      7.500000016178777E-01
RMS Density                                R      3.289655970214451E-09
Job Status                                 I                1
Nuclear derivative order                   I                0
External E-field                           R   N=          35
  0.00000000E+00  0.00000000E+00  0.00000000E+00  0.00000000E+00  0.00000000E+00
  0.00000000E+00  0.00000000E+00  0.00000000E+00  0.00000000E+00  0.00000000E+00
  0.00000000E+00  0.00000000E+00  0.00000000E+00  0.00000000E+00  0.00000000E+00
  0.00000000E+00  0.00000000E+00  0.00000000E+00  0.00000000E+00  0.00000000E+00
  0.00000000E+00  0.00000000E+00  0.00000000E+00  0.00000000E+00  0.00000000E+00
  0.00000000E+00  0.00000000E+00  0.00000000E+00  0.00000000E+00  0.00000000E+00
  0.00000000E+00  0.00000000E+00  0.00000000E+00  0.00000000E+00  0.00000000E+00
IOpCl                                      I                1
IROHF                                      I                0
Alpha Orbital Energies                     R   N=          22
 -6.89568677E+00 -4.08492825E-01 -1.97077748E-01 -9.07427068E-02 -9.07427068E-02
  2.77492644E-02  5.17575187E-02  6.20645135E-02  6.20645135E-02  3.69403945E-01
  3.88193701E-01  3.88193701E-01  4.39054932E-01  8.05422380E-01  8.05422380E-01
  8.10384513E-01  8.24330141E-01  8.24330146E-01  1.76337282E+00  1.78067436E+00
  1.78067436E+00  1.38581957E+01
Beta Orbital Energies                      R   N=          22
 -6.88545738E+00 -3.61158206E-01 -7.91664744E-02 -7.91664744E-02 -3.83146364E-02
  4.13655277E-02  6.99461169E-02  6.99461169E-02  8.27619662E-02  3.95972322E-01
  3.95972322E-01  4.25328344E-01  4.62962387E-01  8.26153768E-01  8.26153768E-01
  8.65770175E-01  8.65770175E-01  8.78463928E-01  1.78644457E+00  1.78644457E+00
  1.82555406E+00  1.38674499E+01
Alpha MO coefficients                      R   N=         484
  5.77553734E-01  4.55473256E-01  0.00000000E+00  0.00000000E+00  0.00000000E+00
  1.24021057E-02  0.00000000E+00  0.00000000E+00  0.00000000E+00 -7.21209007E-03
  0.00000000E+00  0.00000000E+00  0.00000000E+00  2.54051919E-03  0.00000000E+00
  0.00000000E+00  0.00000000E+00  5.42521761E-04  0.00000000E+00  0.00000000E+00
  1.82022625E-17  0.00000000E+00 -1.28327456E-01 -2.03668162E-01  0.00000000E+00
  0.00000000E+00  0.00000000E+00  5.92171051E-01  0.00000000E+00  0.00000000E+00
  0.00000000E+00  5.21319146E-01  0.00000000E+00  0.00000000E+00  0.00000000E+00
  4.23821060E-04  0.00000000E+00  0.00000000E+00  0.00000000E+00  1.81489134E-02
  0.00000000E+00  0.00000000E+00  4.66442475E-17  0.00000000E+00  0.00000000E+00
  0.00000000E+00  0.00000000E+00  0.00000000E+00  2.74081067E-01  0.00000000E+00
  0.00000000E+00  0.00000000E+00  4.45062635E-01  0.00000000E+00  0.00000000E+00
  0.00000000E+00  4.38674267E-01  0.00000000E+00  0.00000000E+00  0.00000000E+00
  6.20725153E-02  0.00000000E+00  0.00000000E+00  0.00000000E+00  0.00000000E+00
  0.00000000E+00  0.00000000E+00  0.00000000E+00  0.00000000E+00  2.39476371E-01
  0.00000000E+00  0.00000000E+00  0.00000000E+00  3.91434922E-01  0.00000000E+00
  0.00000000E+00  0.00000000E+00  4.59476693E-01  0.00000000E+00  0.00000000E+00
  0.00000000E+00  1.60924546E-01  0.00000000E+00  0.00000000E+00  0.00000000E+00
  0.00000000E+00  0.00000000E+00  0.00000000E+00  0.00000000E+00  0.00000000E+00
  2.39476371E-01  0.00000000E+00  0.00000000E+00  0.00000000E+00  3.91434922E-01
  0.00000000E+00  0.00000000E+00  0.00000000E+00  4.59476693E-01  0.00000000E+00
  0.00000000E+00  0.00000000E+00  1.60924546E-01  0.00000000E+00  0.00000000E+00
  0.00000000E+00  0.00000000E+00  0.00000000E+00  0.00000000E+00  0.00000000E+00
  4.25371213E-02  6.60162925E-02  0.00000000E+00  0.00000000E+00  0.00000000E+00
 -1.63381406E-01  0.00000000E+00  0.00000000E+00  0.00000000E+00 -9.13545339E-01
  0.00000000E+00  0.00000000E+00  0.00000000E+00  1.53472344E+00  0.00000000E+00
  0.00000000E+00  0.00000000E+00 -2.53113093E-03  0.00000000E+00  0.00000000E+00
  5.27437891E-17  0.00000000E+00  0.00000000E+00  0.00000000E+00  0.00000000E+00
  0.00000000E+00 -1.20819729E-01  0.00000000E+00  0.00000000E+00  0.00000000E+00
 -1.32455508E-01  0.00000000E+00  0.00000000E+00  0.00000000E+00 -4.65864119E-01
  0.00000000E+00  0.00000000E+00  0.00000000E+00  1.22216002E+00  0.00000000E+00
  0.00000000E+00  0.00000000E+00  0.00000000E+00  0.00000000E+00  0.00000000E+00
  0.00000000E+00  0.00000000E+00 -1.38176340E-01  0.00000000E+00  0.00000000E+00
  0.00000000E+00 -1.59081996E-01  0.00000000E+00  0.00000000E+00  0.00000000E+00
 -5.55707218E-01  0.00000000E+00  0.00000000E+00  0.00000000E+00  1.22884040E+00
  0.00000000E+00  0.00000000E+00  0.00000000E+00  0.00000000E+00  0.00000000E+00
  0.00000000E+00  0.00000000E+00  0.00000000E+00 -1.38176340E-01  0.00000000E+00
  0.00000000E+00  0.00000000E+00 -1.59081996E-01  0.00000000E+00  0.00000000E+00
  0.00000000E+00 -5.55707218E-01  0.00000000E+00  0.00000000E+00  0.00000000E+00
  1.22884040E+00  0.00000000E+00  0.00000000E+00  0.00000000E+00  0.00000000E+00
  0.00000000E+00  0.00000000E+00  0.00000000E+00  0.00000000E+00  0.00000000E+00
  0.00000000E+00  0.00000000E+00 -2.44424858E-01  0.00000000E+00  0.00000000E+00
  0.00000000E+00 -9.56778168E-01  0.00000000E+00  0.00000000E+00  0.00000000E+00
  1.70800415E+00  0.00000000E+00  0.00000000E+00  0.00000000E+00 -7.91263023E-01
  0.00000000E+00  0.00000000E+00  0.00000000E+00  0.00000000E+00  0.00000000E+00
  0.00000000E+00  0.00000000E+00  0.00000000E+00 -2.47925717E-01  0.00000000E+00
  0.00000000E+00  0.00000000E+00 -9.96104742E-01  0.00000000E+00  0.00000000E+00
  0.00000000E+00  1.68149799E+00  0.00000000E+00  0.00000000E+00  0.00000000E+00
 -7.68096376E-01  0.00000000E+00  0.00000000E+00  0.00000000E+00  0.00000000E+00
  0.00000000E+00  0.00000000E+00  0.00000000E+00  0.00000000E+00 -2.47925717E-01
  0.00000000E+00  0.00000000E+00  0.00000000E+00 -9.96104742E-01  0.00000000E+00
  0.00000000E+00  0.00000000E+00  1.68149799E+00  0.00000000E+00  0.00000000E+00
  0.00000000E+00 -7.68096376E-01  0.00000000E+00  0.00000000E+00  0.00000000E+00
  0.00000000E+00  0.00000000E+00  0.00000000E+00  0.00000000E+00  1.23929731E-01
  2.57977025E-01  0.00000000E+00  0.00000000E+00  0.00000000E+00 -1.97075903E+00
  0.00000000E+00  0.00000000E+00  0.00000000E+00  2.63917981E+00  0.00000000E+00
  0.00000000E+00  0.00000000E+00 -1.13192816E+00  0.00000000E+00  0.00000000E+00
  0.00000000E+00 -6.75284089E-03  0.00000000E+00  0.00000000E+00 -7.48054087E-16
  0.00000000E+00  0.00000000E+00  0.00000000E+00  0.00000000E+00  0.00000000E+00
  0.00000000E+00  0.00000000E+00  0.00000000E+00  0.00000000E+00  0.00000000E+00
  0.00000000E+00  0.00000000E+00  0.00000000E+00  0.00000000E+00  0.00000000E+00
  0.00000000E+00  0.00000000E+00  0.00000000E+00  0.00000000E+00  1.00000000E+00
  0.00000000E+00  0.00000000E+00  0.00000000E+00  0.00000000E+00  0.00000000E+00
  0.00000000E+00  0.00000000E+00  0.00000000E+00  0.00000000E+00  0.00000000E+00
  0.00000000E+00  0.00000000E+00  0.00000000E+00  0.00000000E+00  0.00000000E+00
  0.00000000E+00  0.00000000E+00  0.00000000E+00  0.00000000E+00  0.00000000E+00
  0.00000000E+00  0.00000000E+00  1.00000000E+00  0.00000000E+00  0.00000000E+00
  3.04421558E-03  5.26807524E-03  0.00000000E+00  0.00000000E+00  0.00000000E+00
 -2.44565816E-02  0.00000000E+00  0.00000000E+00  0.00000000E+00  6.03454953E-03
  0.00000000E+00  0.00000000E+00  0.00000000E+00 -3.76219353E-03  0.00000000E+00
  0.00000000E+00  0.00000000E+00  9.99809138E-01  0.00000000E+00  0.00000000E+00
  1.55429576E-14  0.00000000E+00  4.38092984E-17  6.85775006E-17  0.00000000E+00
  0.00000000E+00  0.00000000E+00 -1.01711545E-15  0.00000000E+00  0.00000000E+00
  0.00000000E+00  1.86291637E-15  0.00000000E+00  0.00000000E+00  0.00000000E+00
 -1.04800378E-15  0.00000000E+00  0.00000000E+00  0.00000000E+00 -1.59152215E-14
  0.00000000E+00  0.00000000E+00  1.00000000E+00  0.00000000E+00  0.00000000E+00
  0.00000000E+00  0.00000000E+00  0.00000000E+00  0.00000000E+00  0.00000000E+00
  0.00000000E+00  0.00000000E+00  0.00000000E+00  0.00000000E+00  0.00000000E+00
  0.00000000E+00  0.00000000E+00  0.00000000E+00  0.00000000E+00  0.00000000E+00
  0.00000000E+00  0.00000000E+00  0.00000000E+00  0.00000000E+00  0.00000000E+00
  1.00000000E+00  0.00000000E+00  0.00000000E+00  0.00000000E+00  0.00000000E+00
 -1.36518126E+00  0.00000000E+00  0.00000000E+00  0.00000000E+00  1.67824196E+00
  0.00000000E+00  0.00000000E+00  0.00000000E+00 -9.52095608E-01  0.00000000E+00
  0.00000000E+00  0.00000000E+00  3.19800780E-01  0.00000000E+00  0.00000000E+00
  0.00000000E+00  0.00000000E+00  0.00000000E+00  0.00000000E+00  0.00000000E+00
  0.00000000E+00 -1.36940587E+00  0.00000000E+00  0.00000000E+00  0.00000000E+00
  1.66637112E+00  0.00000000E+00  0.00000000E+00  0.00000000E+00 -9.41203425E-01
  0.00000000E+00  0.00000000E+00  0.00000000E+00  3.16196705E-01  0.00000000E+00
  0.00000000E+00  0.00000000E+00  0.00000000E+00  0.00000000E+00  0.00000000E+00
  0.00000000E+00  0.00000000E+00 -1.36940587E+00  0.00000000E+00  0.00000000E+00
  0.00000000E+00  1.66637112E+00  0.00000000E+00  0.00000000E+00  0.00000000E+00
 -9.41203425E-01  0.00000000E+00  0.00000000E+00  0.00000000E+00  3.16196705E-01
  0.00000000E+00  0.00000000E+00  0.00000000E+00  0.00000000E+00  0.00000000E+00
  0.00000000E+00  0.00000000E+00 -1.88664659E+00  2.06608665E+00  0.00000000E+00
  0.00000000E+00  0.00000000E+00 -5.39109090E-01  0.00000000E+00  0.00000000E+00
  0.00000000E+00  4.25119095E-01  0.00000000E+00  0.00000000E+00  0.00000000E+00
 -1.52419500E-01  0.00000000E+00  0.00000000E+00  0.00000000E+00  4.42167337E-05
  0.00000000E+00  0.00000000E+00 -3.96616185E-17  0.00000000E+00
Beta MO coefficients                       R   N=         484
  5.78303057E-01  4.55243021E-01  0.00000000E+00  0.00000000E+00  0.00000000E+00
  1.08327342E-02  0.00000000E+00  0.00000000E+00  0.00000000E+00 -6.61394485E-03
  0.00000000E+00  0.00000000E+00  0.00000000E+00  2.31230399E-03  0.00000000E+00
  0.00000000E+00  0.00000000E+00 -4.14399953E-04  0.00000000E+00  0.00000000E+00
 -2.14257626E-16  0.00000000E+00 -1.26872325E-01 -1.99306160E-01  0.00000000E+00
  0.00000000E+00  0.00000000E+00  5.73687581E-01  0.00000000E+00  0.00000000E+00
  0.00000000E+00  5.29690238E-01  0.00000000E+00  0.00000000E+00  0.00000000E+00
  1.24578114E-02  0.00000000E+00  0.00000000E+00  0.00000000E+00 -3.34073176E-02
  0.00000000E+00  0.00000000E+00  2.59095409E-16  0.00000000E+00  0.00000000E+00
  0.00000000E+00  0.00000000E+00  2.40495500E-01  0.00000000E+00  0.00000000E+00
  0.00000000E+00  3.86495308E-01  0.00000000E+00  0.00000000E+00  0.00000000E+00
  4.57857919E-01  0.00000000E+00  0.00000000E+00  0.00000000E+00  1.69785152E-01
  0.00000000E+00  0.00000000E+00  0.00000000E+00  0.00000000E+00  0.00000000E+00
  0.00000000E+00  0.00000000E+00  0.00000000E+00  2.40495500E-01  0.00000000E+00
  0.00000000E+00  0.00000000E+00  3.86495308E-01  0.00000000E+00  0.00000000E+00
  0.00000000E+00  4.57857919E-01  0.00000000E+00  0.00000000E+00  0.00000000E+00
  1.69785152E-01  0.00000000E+00  0.00000000E+00  0.00000000E+00  0.00000000E+00
  0.00000000E+00  0.00000000E+00  0.00000000E+00  0.00000000E+00  0.00000000E+00
  0.00000000E+00  0.00000000E+00  2.20107065E-01  0.00000000E+00  0.00000000E+00
  0.00000000E+00  3.31223319E-01  0.00000000E+00  0.00000000E+00  0.00000000E+00
  4.41075533E-01  0.00000000E+00  0.00000000E+00  0.00000000E+00  2.87132299E-01
  0.00000000E+00  0.00000000E+00  0.00000000E+00  0.00000000E+00  0.00000000E+00
  4.29893414E-02  6.55992618E-02  0.00000000E+00  0.00000000E+00  0.00000000E+00
 -1.49909059E-01  0.00000000E+00  0.00000000E+00  0.00000000E+00 -9.48962382E-01
  0.00000000E+00  0.00000000E+00  0.00000000E+00  1.54668833E+00  0.00000000E+00
  0.00000000E+00  0.00000000E+00  9.60596925E-03  0.00000000E+00  0.00000000E+00
  3.82560107E-17  0.00000000E+00  0.00000000E+00  0.00000000E+00 -1.40847083E-01
  0.00000000E+00  0.00000000E+00  0.00000000E+00 -1.59501894E-01  0.00000000E+00
  0.00000000E+00  0.00000000E+00 -5.62606544E-01  0.00000000E+00  0.00000000E+00
  0.00000000E+00  1.22884969E+00  0.00000000E+00  0.00000000E+00  0.00000000E+00
  0.00000000E+00  0.00000000E+00  0.00000000E+00  0.00000000E+00  0.00000000E+00
  0.00000000E+00  0.00000000E+00 -1.40847083E-01  0.00000000E+00  0.00000000E+00
  0.00000000E+00 -1.59501894E-01  0.00000000E+00  0.00000000E+00  0.00000000E+00
 -5.62606544E-01  0.00000000E+00  0.00000000E+00  0.00000000E+00  1.22884969E+00
  0.00000000E+00  0.00000000E+00  0.00000000E+00  0.00000000E+00  0.00000000E+00
  0.00000000E+00  0.00000000E+00  0.00000000E+00  0.00000000E+00  0.00000000E+00
 -1.60965844E-01  0.00000000E+00  0.00000000E+00  0.00000000E+00 -1.63740882E-01
  0.00000000E+00  0.00000000E+00  0.00000000E+00 -6.72631737E-01  0.00000000E+00
  0.00000000E+00  0.00000000E+00  1.22862830E+00  0.00000000E+00  0.00000000E+00
  0.00000000E+00  0.00000000E+00  0.00000000E+00  0.00000000E+00  0.00000000E+00
  0.00000000E+00 -2.49157158E-01  0.00000000E+00  0.00000000E+00  0.00000000E+00
 -9.95614701E-01  0.00000000E+00  0.00000000E+00  0.00000000E+00  1.67975248E+00
  0.00000000E+00  0.00000000E+00  0.00000000E+00 -7.66258153E-01  0.00000000E+00
  0.00000000E+00  0.00000000E+00  0.00000000E+00  0.00000000E+00  0.00000000E+00
  0.00000000E+00  0.00000000E+00 -2.49157158E-01  0.00000000E+00  0.00000000E+00
  0.00000000E+00 -9.95614701E-01  0.00000000E+00  0.00000000E+00  0.00000000E+00
  1.67975248E+00  0.00000000E+00  0.00000000E+00  0.00000000E+00 -7.66258153E-01
  0.00000000E+00  0.00000000E+00  0.00000000E+00  0.00000000E+00  0.00000000E+00
  0.00000000E+00  0.00000000E+00  0.00000000E+00  0.00000000E+00  0.00000000E+00
  0.00000000E+00 -2.56287587E-01  0.00000000E+00  0.00000000E+00  0.00000000E+00
 -1.01833175E+00  0.00000000E+00  0.00000000E+00  0.00000000E+00  1.64837121E+00
  0.00000000E+00  0.00000000E+00  0.00000000E+00 -7.32521242E-01  0.00000000E+00
  0.00000000E+00  0.00000000E+00  0.00000000E+00  0.00000000E+00  1.25477032E-01
  2.59468533E-01  0.00000000E+00  0.00000000E+00  0.00000000E+00 -1.97662506E+00
  0.00000000E+00  0.00000000E+00  0.00000000E+00  2.62491118E+00  0.00000000E+00
  0.00000000E+00  0.00000000E+00 -1.11544665E+00  0.00000000E+00  0.00000000E+00
  0.00000000E+00  1.47481544E-02  0.00000000E+00  0.00000000E+00  1.22126473E-15
  0.00000000E+00  0.00000000E+00  0.00000000E+00  0.00000000E+00  0.00000000E+00
  0.00000000E+00  0.00000000E+00  0.00000000E+00  0.00000000E+00  0.00000000E+00
  0.00000000E+00  0.00000000E+00  0.00000000E+00  0.00000000E+00  0.00000000E+00
  0.00000000E+00  0.00000000E+00  0.00000000E+00  0.00000000E+00  0.00000000E+00
  0.00000000E+00  0.00000000E+00  1.00000000E+00 -2.38055469E-16 -4.60093581E-16
  0.00000000E+00  0.00000000E+00  0.00000000E+00  3.26485665E-15  0.00000000E+00
  0.00000000E+00  0.00000000E+00 -4.14046813E-15  0.00000000E+00  0.00000000E+00
  0.00000000E+00  1.12682788E-15  0.00000000E+00  0.00000000E+00  0.00000000E+00
  5.41384073E-15  0.00000000E+00  0.00000000E+00  1.00000000E+00  0.00000000E+00
  0.00000000E+00  0.00000000E+00  0.00000000E+00  0.00000000E+00  0.00000000E+00
  0.00000000E+00  0.00000000E+00  0.00000000E+00  0.00000000E+00  0.00000000E+00
  0.00000000E+00  0.00000000E+00  0.00000000E+00  0.00000000E+00  0.00000000E+00
  0.00000000E+00  0.00000000E+00  0.00000000E+00  1.00000000E+00  0.00000000E+00
  0.00000000E+00  0.00000000E+00  0.00000000E+00  0.00000000E+00  0.00000000E+00
  0.00000000E+00  0.00000000E+00  0.00000000E+00  0.00000000E+00  0.00000000E+00
  0.00000000E+00  0.00000000E+00  0.00000000E+00  0.00000000E+00  0.00000000E+00
  0.00000000E+00  0.00000000E+00  0.00000000E+00  0.00000000E+00  0.00000000E+00
  0.00000000E+00  1.00000000E+00  0.00000000E+00  0.00000000E+00 -7.46144375E-03
 -9.62562773E-03  0.00000000E+00  0.00000000E+00  0.00000000E+00  4.94550852E-02
  0.00000000E+00  0.00000000E+00  0.00000000E+00 -1.16431826E-02  0.00000000E+00
  0.00000000E+00  0.00000000E+00  1.91532940E-03  0.00000000E+00  0.00000000E+00
  0.00000000E+00  9.99286544E-01  0.00000000E+00  0.00000000E+00 -5.99998095E-15
  0.00000000E+00  0.00000000E+00  0.00000000E+00  0.00000000E+00 -1.36873151E+00
  0.00000000E+00  0.00000000E+00  0.00000000E+00  1.66777625E+00  0.00000000E+00
  0.00000000E+00  0.00000000E+00 -9.41010260E-01  0.00000000E+00  0.00000000E+00
  0.00000000E+00  3.15986877E-01  0.00000000E+00  0.00000000E+00  0.00000000E+00
  0.00000000E+00  0.00000000E+00  0.00000000E+00  0.00000000E+00  0.00000000E+00
 -1.36873151E+00  0.00000000E+00  0.00000000E+00  0.00000000E+00  1.66777625E+00
  0.00000000E+00  0.00000000E+00  0.00000000E+00 -9.41010260E-01  0.00000000E+00
  0.00000000E+00  0.00000000E+00  3.15986877E-01  0.00000000E+00  0.00000000E+00
  0.00000000E+00  0.00000000E+00  0.00000000E+00  0.00000000E+00  0.00000000E+00
  0.00000000E+00  0.00000000E+00  0.00000000E+00  0.00000000E+00 -1.36862733E+00
  0.00000000E+00  0.00000000E+00  0.00000000E+00  1.66554082E+00  0.00000000E+00
  0.00000000E+00  0.00000000E+00 -9.32266053E-01  0.00000000E+00  0.00000000E+00
  0.00000000E+00  3.11990393E-01  0.00000000E+00  0.00000000E+00  0.00000000E+00
  0.00000000E+00  0.00000000E+00 -1.88639063E+00  2.06637357E+00  0.00000000E+00
  0.00000000E+00  0.00000000E+00 -5.39853487E-01  0.00000000E+00  0.00000000E+00
  0.00000000E+00  4.25422262E-01  0.00000000E+00  0.00000000E+00  0.00000000E+00
 -1.52511250E-01  0.00000000E+00  0.00000000E+00  0.00000000E+00 -6.32846712E-04
  0.00000000E+00  0.00000000E+00 -4.35778616E-17  0.00000000E+00
Orthonormal basis                          R   N=         484
  2.20797284E-01  2.44739916E-01  0.00000000E+00  0.00000000E+00  0.00000000E+00
  3.17216832E-01  0.00000000E+00  0.00000000E+00  0.00000000E+00  3.16446712E-01
  0.00000000E+00  0.00000000E+00  0.00000000E+00  2.52983204E-01  0.00000000E+00
  0.00000000E+00  0.00000000E+00 -2.09373514E-17  0.00000000E+00  0.00000000E+00
  2.09373514E-17  0.00000000E+00  4.61749599E-01  4.38802802E-01  0.00000000E+00
  0.00000000E+00  0.00000000E+00 -8.86709436E-02  0.00000000E+00  0.00000000E+00
  0.00000000E+00 -3.00746831E-01  0.00000000E+00  0.00000000E+00  0.00000000E+00
 -3.40130709E-01  0.00000000E+00  0.00000000E+00  0.00000000E+00  5.43865477E-17
  0.00000000E+00  0.00000000E+00 -5.43865477E-17  0.00000000E+00 -3.92746622E-30
  8.46277571E-30  0.00000000E+00  0.00000000E+00  0.00000000E+00 -2.42746860E-29
  0.00000000E+00  0.00000000E+00  0.00000000E+00  3.75975048E-29  0.00000000E+00
  0.00000000E+00  0.00000000E+00 -2.13795293E-29  0.00000000E+00  0.00000000E+00
  0.00000000E+00  7.07106781E-01  0.00000000E+00  0.00000000E+00  7.07106781E-01
  0.00000000E+00 -4.03063233E-17 -3.32192766E-17  0.00000000E+00  0.00000000E+00
  0.00000000E+00  7.13922023E-17  0.00000000E+00  0.00000000E+00  0.00000000E+00
 -4.29448159E-17  0.00000000E+00  0.00000000E+00  0.00000000E+00  1.49290556E-16
  0.00000000E+00  0.00000000E+00  0.00000000E+00  7.07106781E-01  0.00000000E+00
  0.00000000E+00 -7.07106781E-01  0.00000000E+00 -3.68459642E-01 -8.05597253E-02
  0.00000000E+00  0.00000000E+00  0.00000000E+00  9.76905517E-01  0.00000000E+00
  0.00000000E+00  0.00000000E+00  9.10528333E-02  0.00000000E+00  0.00000000E+00
  0.00000000E+00 -9.39323918E-01  0.00000000E+00  0.00000000E+00  0.00000000E+00
  4.01489061E-17  0.00000000E+00  0.00000000E+00 -4.01489061E-17  0.00000000E+00
 -1.76988531E+00  1.82655534E+00  0.00000000E+00  0.00000000E+00  0.00000000E+00
  8.31502523E-02  0.00000000E+00  0.00000000E+00  0.00000000E+00 -7.05353029E-01
  0.00000000E+00  0.00000000E+00  0.00000000E+00  5.55708261E-01  0.00000000E+00
  0.00000000E+00  0.00000000E+00 -9.02899546E-17  0.00000000E+00  0.00000000E+00
  9.02899546E-17  0.00000000E+00 -6.29625441E-01  9.96668901E-01  0.00000000E+00
  0.00000000E+00  0.00000000E+00 -1.86625141E+00  0.00000000E+00  0.00000000E+00
  0.00000000E+00  2.74882207E+00  0.00000000E+00  0.00000000E+00  0.00000000E+00
 -1.51296378E+00  0.00000000E+00  0.00000000E+00  0.00000000E+00  3.33589587E-16
  0.00000000E+00  0.00000000E+00 -3.33589587E-16  0.00000000E+00  0.00000000E+00
  0.00000000E+00  0.00000000E+00  0.00000000E+00  0.00000000E+00  0.00000000E+00
  0.00000000E+00  0.00000000E+00  0.00000000E+00  0.00000000E+00  0.00000000E+00
  0.00000000E+00  0.00000000E+00  0.00000000E+00  0.00000000E+00  0.00000000E+00
  0.00000000E+00  0.00000000E+00  0.00000000E+00  0.00000000E+00  0.00000000E+00
  1.00000000E+00  0.00000000E+00  0.00000000E+00  0.00000000E+00  0.00000000E+00
  0.00000000E+00  0.00000000E+00  0.00000000E+00  0.00000000E+00  0.00000000E+00
  0.00000000E+00  0.00000000E+00  0.00000000E+00  0.00000000E+00  0.00000000E+00
  0.00000000E+00  0.00000000E+00  0.00000000E+00  0.00000000E+00  1.00000000E+00
  0.00000000E+00  0.00000000E+00  0.00000000E+00  0.00000000E+00  0.00000000E+00
  0.00000000E+00  0.00000000E+00  0.00000000E+00  0.00000000E+00  0.00000000E+00
  0.00000000E+00  0.00000000E+00  0.00000000E+00  0.00000000E+00  0.00000000E+00
  0.00000000E+00  0.00000000E+00  0.00000000E+00  0.00000000E+00  0.00000000E+00
  0.00000000E+00  0.00000000E+00  1.00000000E+00  0.00000000E+00  0.00000000E+00
  0.00000000E+00  0.00000000E+00  0.00000000E+00  0.00000000E+00  2.64713356E-01
  0.00000000E+00  0.00000000E+00  0.00000000E+00  3.73230619E-01  0.00000000E+00
  0.00000000E+00  0.00000000E+00  3.78748627E-01  0.00000000E+00  0.00000000E+00
  0.00000000E+00  2.77688075E-01  0.00000000E+00  0.00000000E+00  0.00000000E+00
  0.00000000E+00  0.00000000E+00  0.00000000E+00  0.00000000E+00  0.00000000E+00
  0.00000000E+00  5.99191960E-01  0.00000000E+00  0.00000000E+00  0.00000000E+00
  3.04989471E-01  0.00000000E+00  0.00000000E+00  0.00000000E+00 -2.96244438E-01