fubar                                                                   
SP        UPBE1PBE                                                    6-311+G(d,p)        
Number of atoms                            I                1
Info1-9                                    I   N=           9
          11          10           0           0           0         110
           1          18       -1302
Full Title                                 C   N=           1
fubar       
Route                                      C   N=           3
#PBE1PBE/6-311+G(d,p) scf=tight     
Charge                                     I                0
Multiplicity                               I                2
Number of electrons                        I               35
Number of alpha electrons                  I               18
Number of beta electrons                   I               17
Number of basis functions                  I               48
Number of independent functions            I               48
Number of point charges in /Mol/           I                0
Number of translation vectors              I                0
Atomic numbers                             I   N=           1
          35
Nuclear charges                            R   N=           1
  3.50000000E+01
Current cartesian coordinates              R   N=           3
  0.00000000E+00  0.00000000E+00  0.00000000E+00
Number of symbols in /Mol/                 I                0
Int Atom Types                             I   N=           1
           0
Force Field                                I                0
Atom Types                                 C   N=           1
            
MM charges                                 R   N=           1
  0.00000000E+00
Integer atomic weights                     I   N=           1
          79
Real atomic weights                        R   N=           1
  7.89183361E+01
Atom fragment info                         I   N=           1
           0
Atom residue num                           I   N=           1
           0
Nuclear spins                              I   N=           1
           3
Nuclear ZEff                               R   N=           1
 -2.45000000E+01
Nuclear ZNuc                               R   N=           1
  3.50000000E+01
Nuclear QMom                               R   N=           1
  3.13000000E+01
Nuclear GFac                               R   N=           1
  2.10639900E+00
MicOpt                                     I   N=           1
          -1
Number of residues                         I                0
Number of secondary structures             I                0
SymInf integers                            I   N=          26
           1           8           1           1           1           1
          -1          -1          -1           1          -1          -1
          -1           1          -1          -1          -1          -1
           1           1           1          -1           1           1
           1          -1
RotTr to input orientation                 R   N=          12
  0.00000000E+00  0.00000000E+00 -1.00000000E+00  0.00000000E+00  1.00000000E+00
  0.00000000E+00  1.00000000E+00  0.00000000E+00  0.00000000E+00  0.00000000E+00
  0.00000000E+00  0.00000000E+00
Number of contracted shells                I               19
Number of primitive shells                 I               35
Pure/Cartesian d shells                    I                0
Pure/Cartesian f shells                    I                0
Highest angular momentum                   I                2
Largest degree of contraction              I                6
Shell types                                I   N=          19
           0           0           0           0           0           0
           0           0          -1           1           1           1
           1           1           1           1          -2          -2
          -2
Number of primitives per shell             I   N=          19
           6           3           1           1           1           1
           1           1           1           3           3           3
           1           1           1           1           4           1
           1
Shell to atom map                          I   N=          19
           1           1           1           1           1           1
           1           1           1           1           1           1
           1           1           1           1           1           1
           1
Primitive exponents                        R   N=          35
  4.39700000E+05  6.60300000E+04  1.51400000E+04  4.31700000E+03  1.41400000E+03
  5.23900000E+02  5.23900000E+02  2.07700000E+02  8.65400000E+01  3.05200000E+01
  1.29800000E+01  4.41200000E+00  1.86200000E+00  3.93200000E-01  1.40000000E-01
  3.50000000E-02  2.95700000E+03  7.00300000E+02  2.24600000E+02  8.25900000E+01
  3.31900000E+01  1.42000000E+01  1.42000000E+01  7.43800000E+00  3.52600000E+00
  1.59500000E+00  8.46200000E-01  3.18600000E-01  1.09600000E-01  1.34800000E+02
  3.63900000E+01  1.21600000E+01  4.34100000E+00  1.53500000E+00  4.51000000E-01
Contraction coefficients                   R   N=          35
  8.12983158E-04  6.28486980E-03  3.19193387E-02  1.28797332E-01  3.94591825E-01
  5.41288786E-01  1.83107648E-01  6.17625795E-01  2.53810600E-01  1.00000000E+00
  1.00000000E+00  1.00000000E+00  1.00000000E+00  1.00000000E+00  1.00000000E+00
  1.00000000E+00  2.22598927E-02  1.80199132E-01  8.62395844E-01  3.43987390E-01
  5.07081411E-01  2.58990506E-01  7.96539352E-02  3.73418448E-01  6.04929885E-01
  1.00000000E+00  1.00000000E+00  1.00000000E+00  1.00000000E+00  1.83093925E-02
  1.34995521E-01  4.26085864E-01  6.04279951E-01  1.00000000E+00  1.00000000E+00
P(S=P) Contraction coefficients            R   N=          35
  0.00000000E+00  0.00000000E+00  0.00000000E+00  0.00000000E+00  0.00000000E+00
  0.00000000E+00  0.00000000E+00  0.00000000E+00  0.00000000E+00  0.00000000E+00
  0.00000000E+00  0.00000000E+00  0.00000000E+00  0.00000000E+00  0.00000000E+00
  1.00000000E+00  0.00000000E+00  0.00000000E+00  0.00000000E+00  0.00000000E+00
  0.00000000E+00  0.00000000E+00  0.00000000E+00  0.00000000E+00  0.00000000E+00
  0.00000000E+00  0.00000000E+00  0.00000000E+00  0.00000000E+00  0.00000000E+00
  0.00000000E+00  0.00000000E+00  0.00000000E+00  0.00000000E+00  0.00000000E+00
Coordinates of each shell                  R   N=          57
  0.00000000E+00  0.00000000E+00  0.00000000E+00  0.00000000E+00  0.00000000E+00
  0.00000000E+00  0.00000000E+00  0.00000000E+00  0.00000000E+00  0.00000000E+00
  0.00000000E+00  0.00000000E+00  0.00000000E+00  0.00000000E+00  0.00000000E+00
  0.00000000E+00  0.00000000E+00  0.00000000E+00  0.00000000E+00  0.00000000E+00
  0.00000000E+00  0.00000000E+00  0.00000000E+00  0.00000000E+00  0.00000000E+00
  0.00000000E+00  0.00000000E+00  0.00000000E+00  0.00000000E+00  0.00000000E+00
  0.00000000E+00  0.00000000E+00  0.00000000E+00  0.00000000E+00  0.00000000E+00
  0.00000000E+00  0.00000000E+00  0.00000000E+00  0.00000000E+00  0.00000000E+00
  0.00000000E+00  0.00000000E+00  0.00000000E+00  0.00000000E+00  0.00000000E+00
  0.00000000E+00  0.00000000E+00  0.00000000E+00  0.00000000E+00  0.00000000E+00
  0.00000000E+00  0.00000000E+00  0.00000000E+00  0.00000000E+00  0.00000000E+00
  0.00000000E+00  0.00000000E+00
Num ILSW                                   I              100
ILSW                                       I   N=         100
           1           0           0           0           2           0
           0           0           0           0        1009          -1
           5           0           0           0           0           0
           0           0           0           0           0           0
           1           0           0           0           0           0
           0           0      100000           0          -1           0
           0           0           0           0           0           0
           0           0           0           1           0           0
           0 -2000000000           1           0           0           0
           0           1           4          52           0           0
           0           0          13           0           0           0
           0           0           0           1           0           1
           0           0           0           0           0           0
           0           0           0           0           0           0
           0           0           0           0           0           0
           0           0           0           0           0           0
           0           0           0           0
Num RLSW                                   I               52
RLSW                                       R   N=          52
  7.50000000E-01  7.50000000E-01  1.00000000E+00  1.00000000E+00  2.50000000E-01
  0.00000000E+00  0.00000000E+00  1.00000000E+00  0.00000000E+00  0.00000000E+00
  0.00000000E+00  0.00000000E+00  1.00000000E+00  0.00000000E+00  0.00000000E+00
  0.00000000E+00  0.00000000E+00  1.00000000E+00  0.00000000E+00  0.00000000E+00
  0.00000000E+00  0.00000000E+00  1.00000000E+00  0.00000000E+00  0.00000000E+00
  0.00000000E+00  0.00000000E+00  1.00000000E+00  0.00000000E+00  0.00000000E+00
  0.00000000E+00  0.00000000E+00  1.00000000E+00  0.00000000E+00  0.00000000E+00
  0.00000000E+00  0.00000000E+00  0.00000000E+00  1.00000000E+00  1.00000000E+00
  0.00000000E+00  1.00000000E+00  0.00000000E+00  0.00000000E+00  0.00000000E+00
  0.00000000E+00  0.00000000E+00  0.00000000E+00  0.00000000E+00  0.00000000E+00
  0.00000000E+00  0.00000000E+00
MxBond                                     I                1
NBond                                      I   N=           1
           0
IBond                                      I   N=           1
           0
RBond                                      R   N=           1
  0.00000000E+00
Virial Ratio                               R      2.001015776308521E+00
SCF Energy                                 R     -2.573774510690110E+03
Total Energy                               R     -2.573774510690110E+03
S**2                                       R      7.520096899322226E-01
S**2 after annihilation                    R      7.500008055534431E-01
RMS Density                                R      7.557020228217949E-09
Job Status                                 I                1
Nuclear derivative order                   I                0
External E-field                           R   N=          35
  0.00000000E+00  0.00000000E+00  0.00000000E+00  0.00000000E+00  0.00000000E+00
  0.00000000E+00  0.00000000E+00  0.00000000E+00  0.00000000E+00  0.00000000E+00
  0.00000000E+00  0.00000000E+00  0.00000000E+00  0.00000000E+00  0.00000000E+00
  0.00000000E+00  0.00000000E+00  0.00000000E+00  0.00000000E+00  0.00000000E+00
  0.00000000E+00  0.00000000E+00  0.00000000E+00  0.00000000E+00  0.00000000E+00
  0.00000000E+00  0.00000000E+00  0.00000000E+00  0.00000000E+00  0.00000000E+00
  0.00000000E+00  0.00000000E+00  0.00000000E+00  0.00000000E+00  0.00000000E+00
IOpCl                                      I                1
IROHF                                      I                0
Alpha Orbital Energies                     R   N=          48
 -4.83277433E+02 -6.26766747E+01 -5.64587048E+01 -5.64505359E+01 -5.64505359E+01
 -8.81211885E+00 -6.63216566E+00 -6.60891425E+00 -6.60891425E+00 -2.71114849E+00
 -2.70541134E+00 -2.70541134E+00 -2.68832604E+00 -2.68832604E+00 -8.17434770E-01
 -3.89363852E-01 -3.37597112E-01 -3.37597112E-01  1.41120693E-02  5.14899910E-02
  5.84594890E-02  5.84594890E-02  3.90855922E-01  4.13499242E-01  4.13499242E-01
  5.10843401E-01  5.54711206E-01  5.66323820E-01  5.66323820E-01  6.05708587E-01
  6.05708587E-01  1.92508651E+00  1.96744588E+00  1.96744588E+00  4.11386974E+00
  4.12323110E+00  4.12323110E+00  4.15149806E+00  4.15149806E+00  6.40127754E+00
  7.50882925E+00  7.54651550E+00  7.54651550E+00  4.78020976E+01  2.90016808E+02
  2.90023436E+02  2.90023436E+02  1.02094778E+03
Beta Orbital Energies                      R   N=          48
 -4.83274703E+02 -6.26752502E+01 -5.64524583E+01 -5.64494955E+01 -5.64494955E+01
 -8.80791241E+00 -6.61981717E+00 -6.60720684E+00 -6.60720684E+00 -2.70275670E+00
 -2.69909989E+00 -2.69909989E+00 -2.68747514E+00 -2.68747514E+00 -7.66463925E-01
 -3.21685304E-01 -3.21685304E-01 -2.23472065E-01  2.02987052E-02  5.98431049E-02
  5.98431049E-02  6.27555488E-02  4.18819827E-01  4.18819827E-01  4.21788904E-01
  5.27858866E-01  6.13937954E-01  6.13937954E-01  6.20060216E-01  6.20060216E-01
  6.29480844E-01  1.97289694E+00  1.97676999E+00  1.97676999E+00  4.14021146E+00
  4.14239394E+00  4.14239394E+00  4.15453173E+00  4.15453173E+00  6.41322278E+00
  7.54030611E+00  7.55260817E+00  7.55260817E+00  4.78060787E+01  2.90024728E+02
  2.90024728E+02  2.90024873E+02  1.02094991E+03
Alpha MO coefficients                      R   N=        2304
  3.90063340E-01  6.74223677E-01  8.75191555E-03 -2.18895571E-03  1.05790086E-03
 -5.16314978E-04  1.65503850E-04 -8.74600278E-05  2.18723588E-05  0.00000000E+00
  0.00000000E+00  0.00000000E+00  0.00000000E+00  0.00000000E+00  0.00000000E+00
  0.00000000E+00  0.00000000E+00  0.00000000E+00  0.00000000E+00  0.00000000E+00
  0.00000000E+00  0.00000000E+00  0.00000000E+00  0.00000000E+00  0.00000000E+00
  0.00000000E+00  0.00000000E+00  0.00000000E+00  0.00000000E+00  0.00000000E+00
  0.00000000E+00  0.00000000E+00  0.00000000E+00 -3.21105760E-07  0.00000000E+00
  0.00000000E+00 -5.56171489E-07  0.00000000E+00  1.79155732E-07  0.00000000E+00
  0.00000000E+00  3.10306832E-07  0.00000000E+00 -6.58876899E-08  0.00000000E+00
  0.00000000E+00 -1.14120825E-07  0.00000000E+00 -1.28811496E-01 -3.77006140E-01
  6.30172517E-01  4.96999214E-01  4.78705308E-02 -9.55261497E-03  2.61753992E-03
 -1.37597164E-03  3.41740742E-04  0.00000000E+00  0.00000000E+00  0.00000000E+00
  0.00000000E+00  0.00000000E+00  0.00000000E+00  0.00000000E+00  0.00000000E+00
  0.00000000E+00  0.00000000E+00  0.00000000E+00  0.00000000E+00  0.00000000E+00
  0.00000000E+00  0.00000000E+00  0.00000000E+00  0.00000000E+00  0.00000000E+00
  0.00000000E+00  0.00000000E+00  0.00000000E+00  0.00000000E+00  0.00000000E+00
  0.00000000E+00 -5.11626591E-05  0.00000000E+00  0.00000000E+00 -8.86163249E-05
  0.00000000E+00  1.96590238E-05  0.00000000E+00  0.00000000E+00  3.40504280E-05
  0.00000000E+00 -6.59048460E-06  0.00000000E+00  0.00000000E+00 -1.14150542E-05
  0.00000000E+00  0.00000000E+00  0.00000000E+00  0.00000000E+00  0.00000000E+00
  0.00000000E+00  0.00000000E+00  0.00000000E+00  0.00000000E+00  0.00000000E+00
  0.00000000E+00 -3.08335833E-04  0.00000000E+00  0.00000000E+00  1.26612396E-01
  0.00000000E+00  0.00000000E+00  9.23938574E-01  0.00000000E+00  0.00000000E+00
  3.19220421E-02  0.00000000E+00  0.00000000E+00 -1.42519235E-02  0.00000000E+00
  0.00000000E+00  8.65222175E-03  0.00000000E+00  0.00000000E+00 -2.85411602E-03
  0.00000000E+00  0.00000000E+00  1.05111831E-03  0.00000000E+00  0.00000000E+00
  0.00000000E+00  0.00000000E+00  0.00000000E+00  0.00000000E+00  0.00000000E+00
  0.00000000E+00  0.00000000E+00  0.00000000E+00  0.00000000E+00  0.00000000E+00
  0.00000000E+00  0.00000000E+00  0.00000000E+00  0.00000000E+00  0.00000000E+00
  0.00000000E+00  0.00000000E+00  0.00000000E+00  0.00000000E+00  0.00000000E+00
  0.00000000E+00  0.00000000E+00  0.00000000E+00  0.00000000E+00  0.00000000E+00
 -3.06475116E-04  0.00000000E+00  0.00000000E+00  1.26617650E-01  0.00000000E+00
  0.00000000E+00  9.23966560E-01  0.00000000E+00  0.00000000E+00  3.18415022E-02
  0.00000000E+00  0.00000000E+00 -1.41845749E-02  0.00000000E+00  0.00000000E+00
  8.60493409E-03  0.00000000E+00  0.00000000E+00 -2.83667598E-03  0.00000000E+00
  0.00000000E+00  1.04475026E-03  0.00000000E+00  0.00000000E+00  0.00000000E+00
  0.00000000E+00  0.00000000E+00  0.00000000E+00  0.00000000E+00  0.00000000E+00
  0.00000000E+00  0.00000000E+00  0.00000000E+00  0.00000000E+00  0.00000000E+00
  0.00000000E+00  0.00000000E+00  0.00000000E+00  0.00000000E+00  0.00000000E+00
  0.00000000E+00  0.00000000E+00  0.00000000E+00  0.00000000E+00  0.00000000E+00
  0.00000000E+00 -3.06475116E-04  0.00000000E+00  0.00000000E+00  1.26617650E-01
  0.00000000E+00  0.00000000E+00  9.23966560E-01  0.00000000E+00  0.00000000E+00
  3.18415022E-02  0.00000000E+00  0.00000000E+00 -1.41845749E-02  0.00000000E+00
  0.00000000E+00  8.60493409E-03  0.00000000E+00  0.00000000E+00 -2.83667598E-03
  0.00000000E+00  0.00000000E+00  1.04475026E-03  0.00000000E+00  0.00000000E+00
  0.00000000E+00  0.00000000E+00  0.00000000E+00  0.00000000E+00  0.00000000E+00
  0.00000000E+00  0.00000000E+00  0.00000000E+00  0.00000000E+00  0.00000000E+00
  0.00000000E+00  0.00000000E+00  0.00000000E+00  0.00000000E+00  0.00000000E+00
  5.14481742E-02  1.64727186E-01 -4.21147534E-01 -4.57301546E-01  6.63928103E-01
  6.30310863E-01  3.21154506E-02 -1.01655033E-02  2.25057223E-03  0.00000000E+00
  0.00000000E+00  0.00000000E+00  0.00000000E+00  0.00000000E+00  0.00000000E+00
  0.00000000E+00  0.00000000E+00  0.00000000E+00  0.00000000E+00  0.00000000E+00
  0.00000000E+00  0.00000000E+00  0.00000000E+00  0.00000000E+00  0.00000000E+00
  0.00000000E+00  0.00000000E+00  0.00000000E+00  0.00000000E+00  0.00000000E+00
  0.00000000E+00  0.00000000E+00  0.00000000E+00 -9.09536869E-04  0.00000000E+00
  0.00000000E+00 -1.57536407E-03  0.00000000E+00 -6.83091523E-04  0.00000000E+00
  0.00000000E+00 -1.18314922E-03  0.00000000E+00  1.46249790E-05  0.00000000E+00
  0.00000000E+00  2.53312068E-05  0.00000000E+00  0.00000000E+00  0.00000000E+00
  0.00000000E+00  0.00000000E+00  0.00000000E+00  0.00000000E+00  0.00000000E+00
  0.00000000E+00  0.00000000E+00  0.00000000E+00  2.29365853E-05  0.00000000E+00
  0.00000000E+00 -5.23121183E-02  0.00000000E+00  0.00000000E+00 -4.23408632E-01
  0.00000000E+00  0.00000000E+00  8.79301366E-01  0.00000000E+00  0.00000000E+00
  2.48279730E-01  0.00000000E+00  0.00000000E+00  3.05455492E-02  0.00000000E+00
  0.00000000E+00  1.85756925E-03  0.00000000E+00  0.00000000E+00 -1.44966878E-04
  0.00000000E+00  0.00000000E+00  0.00000000E+00  0.00000000E+00  0.00000000E+00
  0.00000000E+00  0.00000000E+00  0.00000000E+00  0.00000000E+00  0.00000000E+00
  0.00000000E+00  0.00000000E+00  0.00000000E+00  0.00000000E+00  0.00000000E+00
  0.00000000E+00  0.00000000E+00  0.00000000E+00  0.00000000E+00  0.00000000E+00
  0.00000000E+00  0.00000000E+00  0.00000000E+00  0.00000000E+00  0.00000000E+00
  0.00000000E+00  0.00000000E+00  3.13515751E-05  0.00000000E+00  0.00000000E+00
 -5.23546106E-02  0.00000000E+00  0.00000000E+00 -4.23743879E-01  0.00000000E+00
  0.00000000E+00  8.80460600E-01  0.00000000E+00  0.00000000E+00  2.47816749E-01
  0.00000000E+00  0.00000000E+00  2.95165902E-02  0.00000000E+00  0.00000000E+00
  1.91052464E-03  0.00000000E+00  0.00000000E+00 -1.72516590E-04  0.00000000E+00
  0.00000000E+00  0.00000000E+00  0.00000000E+00  0.00000000E+00  0.00000000E+00
  0.00000000E+00  0.00000000E+00  0.00000000E+00  0.00000000E+00  0.00000000E+00
  0.00000000E+00  0.00000000E+00  0.00000000E+00  0.00000000E+00  0.00000000E+00
  0.00000000E+00  0.00000000E+00  0.00000000E+00  0.00000000E+00  0.00000000E+00
  0.00000000E+00  0.00000000E+00  0.00000000E+00  3.13515751E-05  0.00000000E+00
  0.00000000E+00 -5.23546106E-02  0.00000000E+00  0.00000000E+00 -4.23743879E-01
  0.00000000E+00  0.00000000E+00  8.80460600E-01  0.00000000E+00  0.00000000E+00
  2.47816749E-01  0.00000000E+00  0.00000000E+00  2.95165902E-02  0.00000000E+00
  0.00000000E+00  1.91052464E-03  0.00000000E+00  0.00000000E+00 -1.72516590E-04
  0.00000000E+00  0.00000000E+00  0.00000000E+00  0.00000000E+00  0.00000000E+00
  0.00000000E+00  0.00000000E+00  0.00000000E+00  0.00000000E+00  0.00000000E+00
  0.00000000E+00  0.00000000E+00  0.00000000E+00  0.00000000E+00  0.00000000E+00
  0.00000000E+00  0.00000000E+00  2.42871603E-04  7.76355742E-04 -2.00092206E-03
 -2.69261577E-03  5.02905631E-03  3.74914117E-03 -7.15868628E-03  1.26419843E-03
 -3.26069392E-04  0.00000000E+00  0.00000000E+00  0.00000000E+00  0.00000000E+00
  0.00000000E+00  0.00000000E+00  0.00000000E+00  0.00000000E+00  0.00000000E+00
  0.00000000E+00  0.00000000E+00  0.00000000E+00  0.00000000E+00  0.00000000E+00
  0.00000000E+00  0.00000000E+00  0.00000000E+00  0.00000000E+00  0.00000000E+00
  0.00000000E+00  0.00000000E+00  0.00000000E+00  0.00000000E+00  0.00000000E+00
  4.03988712E-01  0.00000000E+00  0.00000000E+00  6.99728974E-01  0.00000000E+00
  1.51427785E-01  0.00000000E+00  0.00000000E+00  2.62280618E-01  0.00000000E+00
  2.14870581E-02  0.00000000E+00  0.00000000E+00  3.72166763E-02  0.00000000E+00
  0.00000000E+00  0.00000000E+00  0.00000000E+00  0.00000000E+00  0.00000000E+00
  0.00000000E+00  0.00000000E+00  0.00000000E+00  0.00000000E+00  0.00000000E+00
  0.00000000E+00  0.00000000E+00  0.00000000E+00  0.00000000E+00  0.00000000E+00
  0.00000000E+00  0.00000000E+00  0.00000000E+00  0.00000000E+00  0.00000000E+00
  0.00000000E+00  0.00000000E+00  0.00000000E+00  0.00000000E+00  0.00000000E+00
  0.00000000E+00  0.00000000E+00  0.00000000E+00  0.00000000E+00  0.00000000E+00
  0.00000000E+00  0.00000000E+00  0.00000000E+00  0.00000000E+00  0.00000000E+00
  0.00000000E+00  0.00000000E+00  8.08432787E-01  0.00000000E+00  0.00000000E+00
  0.00000000E+00  0.00000000E+00  3.02438745E-01  0.00000000E+00  0.00000000E+00
  0.00000000E+00  0.00000000E+00  4.25510008E-02  0.00000000E+00  0.00000000E+00
  0.00000000E+00  0.00000000E+00  0.00000000E+00  0.00000000E+00  0.00000000E+00
  0.00000000E+00  0.00000000E+00  0.00000000E+00  0.00000000E+00  0.00000000E+00
  0.00000000E+00  0.00000000E+00  0.00000000E+00  0.00000000E+00  0.00000000E+00
  0.00000000E+00  0.00000000E+00  0.00000000E+00  0.00000000E+00  0.00000000E+00
  0.00000000E+00  0.00000000E+00  0.00000000E+00  0.00000000E+00  0.00000000E+00
  0.00000000E+00  0.00000000E+00  0.00000000E+00  0.00000000E+00  0.00000000E+00
  0.00000000E+00  0.00000000E+00  0.00000000E+00  8.08432787E-01  0.00000000E+00
  0.00000000E+00  0.00000000E+00  0.00000000E+00  3.02438745E-01  0.00000000E+00
  0.00000000E+00  0.00000000E+00  0.00000000E+00  4.25510008E-02  0.00000000E+00
  0.00000000E+00  0.00000000E+00  0.00000000E+00  0.00000000E+00  0.00000000E+00
  0.00000000E+00  0.00000000E+00  0.00000000E+00  0.00000000E+00  0.00000000E+00
  0.00000000E+00  0.00000000E+00  0.00000000E+00  0.00000000E+00  0.00000000E+00
  0.00000000E+00  0.00000000E+00  0.00000000E+00  0.00000000E+00  0.00000000E+00
  0.00000000E+00  0.00000000E+00  0.00000000E+00  0.00000000E+00  0.00000000E+00
  0.00000000E+00  0.00000000E+00  0.00000000E+00  0.00000000E+00  0.00000000E+00
  0.00000000E+00  0.00000000E+00  0.00000000E+00  0.00000000E+00  0.00000000E+00
  8.09678799E-01  0.00000000E+00  0.00000000E+00  0.00000000E+00  0.00000000E+00
  3.01210640E-01  0.00000000E+00  0.00000000E+00  0.00000000E+00  0.00000000E+00
  4.14408848E-02  0.00000000E+00  0.00000000E+00  0.00000000E+00 -1.55026921E-16
 -4.72201228E-16  1.10522554E-15  2.20467930E-15 -4.30981227E-15 -2.21509178E-16
 -1.62717266E-15  6.63589940E-15 -3.75593905E-15  0.00000000E+00  0.00000000E+00
  0.00000000E+00  0.00000000E+00  0.00000000E+00  0.00000000E+00  0.00000000E+00
  0.00000000E+00  0.00000000E+00  0.00000000E+00  0.00000000E+00  0.00000000E+00
  0.00000000E+00  0.00000000E+00  0.00000000E+00  0.00000000E+00  0.00000000E+00
  0.00000000E+00  0.00000000E+00  0.00000000E+00  0.00000000E+00  0.00000000E+00
  0.00000000E+00  0.00000000E+00  7.01202409E-01  0.00000000E+00  0.00000000E+00
 -4.04839400E-01  0.00000000E+00  2.60856066E-01  0.00000000E+00  0.00000000E+00
 -1.50605320E-01  0.00000000E+00  3.58888590E-02  0.00000000E+00  0.00000000E+00
 -2.07204424E-02  0.00000000E+00 -1.65836764E-02 -5.37025527E-02  1.45077023E-01
  1.76777275E-01 -3.44931607E-01 -4.51045941E-01  8.37441819E-01  4.01084711E-01
 -4.06275009E-03  0.00000000E+00  0.00000000E+00  0.00000000E+00  0.00000000E+00
  0.00000000E+00  0.00000000E+00  0.00000000E+00  0.00000000E+00  0.00000000E+00
  0.00000000E+00  0.00000000E+00  0.00000000E+00  0.00000000E+00  0.00000000E+00
  0.00000000E+00  0.00000000E+00  0.00000000E+00  0.00000000E+00  0.00000000E+00
  0.00000000E+00  0.00000000E+00  0.00000000E+00  0.00000000E+00  0.00000000E+00
  6.65510042E-03  0.00000000E+00  0.00000000E+00  1.15269721E-02  0.00000000E+00
  7.51609670E-04  0.00000000E+00  0.00000000E+00  1.30182614E-03  0.00000000E+00
 -1.53699700E-02  0.00000000E+00  0.00000000E+00 -2.66215690E-02  0.00000000E+00
  0.00000000E+00  0.00000000E+00  0.00000000E+00  0.00000000E+00  0.00000000E+00
  0.00000000E+00  0.00000000E+00  0.00000000E+00  0.00000000E+00  0.00000000E+00
  5.74999982E-03  0.00000000E+00  0.00000000E+00  1.43397402E-02  0.00000000E+00
  0.00000000E+00  1.18491108E-01  0.00000000E+00  0.00000000E+00 -3.08803321E-01
  0.00000000E+00  0.00000000E+00 -1.18054093E-01  0.00000000E+00  0.00000000E+00
  2.51326629E-01  0.00000000E+00  0.00000000E+00  6.30886599E-01  0.00000000E+00
  0.00000000E+00  3.16724561E-01  0.00000000E+00  0.00000000E+00  0.00000000E+00
  0.00000000E+00  0.00000000E+00  0.00000000E+00  0.00000000E+00  0.00000000E+00
  0.00000000E+00  0.00000000E+00  0.00000000E+00  0.00000000E+00  0.00000000E+00
  0.00000000E+00  0.00000000E+00  0.00000000E+00  0.00000000E+00  0.00000000E+00
  0.00000000E+00  0.00000000E+00  0.00000000E+00  0.00000000E+00  0.00000000E+00
  0.00000000E+00  0.00000000E+00  0.00000000E+00  0.00000000E+00  1.57249461E-02
  0.00000000E+00  0.00000000E+00  1.40878006E-02  0.00000000E+00  0.00000000E+00
  1.16449689E-01  0.00000000E+00  0.00000000E+00 -3.04159972E-01  0.00000000E+00
  0.00000000E+00 -1.13050069E-01  0.00000000E+00  0.00000000E+00  2.47574341E-01
  0.00000000E+00  0.00000000E+00  6.02674030E-01  0.00000000E+00  0.00000000E+00
  3.45347690E-01  0.00000000E+00  0.00000000E+00  0.00000000E+00  0.00000000E+00
  0.00000000E+00  0.00000000E+00  0.00000000E+00  0.00000000E+00  0.00000000E+00
  0.00000000E+00  0.00000000E+00  0.00000000E+00  0.00000000E+00  0.00000000E+00
  0.00000000E+00  0.00000000E+00  0.00000000E+00  0.00000000E+00  0.00000000E+00
  0.00000000E+00  0.00000000E+00  0.00000000E+00  0.00000000E+00  0.00000000E+00
  1.57249461E-02  0.00000000E+00  0.00000000E+00  1.40878006E-02  0.00000000E+00
  0.00000000E+00  1.16449689E-01  0.00000000E+00  0.00000000E+00 -3.04159972E-01
  0.00000000E+00  0.00000000E+00 -1.13050069E-01  0.00000000E+00  0.00000000E+00
  2.47574341E-01  0.00000000E+00  0.00000000E+00  6.02674030E-01  0.00000000E+00
  0.00000000E+00  3.45347690E-01  0.00000000E+00  0.00000000E+00  0.00000000E+00
  0.00000000E+00  0.00000000E+00  0.00000000E+00  0.00000000E+00  0.00000000E+00
  0.00000000E+00  0.00000000E+00  0.00000000E+00  0.00000000E+00  0.00000000E+00
  0.00000000E+00  0.00000000E+00  0.00000000E+00  0.00000000E+00  4.51776889E-03
  1.45864572E-02 -3.90370508E-02 -5.15103699E-02  1.06572866E-01  1.18165380E-01
 -2.41760913E-01 -6.09831767E-01  1.33669309E+00  0.00000000E+00  0.00000000E+00
  0.00000000E+00  0.00000000E+00  0.00000000E+00  0.00000000E+00  0.00000000E+00
  0.00000000E+00  0.00000000E+00  0.00000000E+00  0.00000000E+00  0.00000000E+00
  0.00000000E+00  0.00000000E+00  0.00000000E+00  0.00000000E+00  0.00000000E+00
  0.00000000E+00  0.00000000E+00  0.00000000E+00  0.00000000E+00  0.00000000E+00
  0.00000000E+00  0.00000000E+00 -1.66564035E-03  0.00000000E+00  0.00000000E+00
 -2.88497371E-03  0.00000000E+00  5.43961160E-04  0.00000000E+00  0.00000000E+00
  9.42168367E-04  0.00000000E+00  2.90702551E-03  0.00000000E+00  0.00000000E+00
  5.03511588E-03  0.00000000E+00  0.00000000E+00  0.00000000E+00  0.00000000E+00
  0.00000000E+00  0.00000000E+00  0.00000000E+00  0.00000000E+00  0.00000000E+00
  0.00000000E+00  0.00000000E+00  1.20951163E+00  0.00000000E+00  0.00000000E+00
 -3.87937365E-03  0.00000000E+00  0.00000000E+00 -3.18813681E-02  0.00000000E+00
  0.00000000E+00  8.27380563E-02  0.00000000E+00  0.00000000E+00  5.12216672E-02
  0.00000000E+00  0.00000000E+00 -1.18258219E-01  0.00000000E+00  0.00000000E+00
 -1.23459960E-01  0.00000000E+00  0.00000000E+00 -3.86036188E-01  0.00000000E+00
  0.00000000E+00  0.00000000E+00  0.00000000E+00  0.00000000E+00  0.00000000E+00
  0.00000000E+00  0.00000000E+00  0.00000000E+00  0.00000000E+00  0.00000000E+00
  0.00000000E+00  0.00000000E+00  0.00000000E+00  0.00000000E+00  0.00000000E+00
  0.00000000E+00  0.00000000E+00  0.00000000E+00  0.00000000E+00  0.00000000E+00
  0.00000000E+00  0.00000000E+00  0.00000000E+00  0.00000000E+00  0.00000000E+00
  0.00000000E+00  1.22903518E+00  0.00000000E+00  0.00000000E+00 -3.94821174E-03
  0.00000000E+00  0.00000000E+00 -3.24295301E-02  0.00000000E+00  0.00000000E+00
  8.40599114E-02  0.00000000E+00  0.00000000E+00  5.29284505E-02  0.00000000E+00
  0.00000000E+00 -1.23383632E-01  0.00000000E+00  0.00000000E+00 -1.06419831E-01
  0.00000000E+00  0.00000000E+00 -4.38308152E-01  0.00000000E+00  0.00000000E+00
  0.00000000E+00  0.00000000E+00  0.00000000E+00  0.00000000E+00  0.00000000E+00
  0.00000000E+00  0.00000000E+00  0.00000000E+00  0.00000000E+00  0.00000000E+00
  0.00000000E+00  0.00000000E+00  0.00000000E+00  0.00000000E+00  0.00000000E+00
  0.00000000E+00  0.00000000E+00  0.00000000E+00  0.00000000E+00  0.00000000E+00
  0.00000000E+00  0.00000000E+00  1.22903518E+00  0.00000000E+00  0.00000000E+00
 -3.94821174E-03  0.00000000E+00  0.00000000E+00 -3.24295301E-02  0.00000000E+00
  0.00000000E+00  8.40599114E-02  0.00000000E+00  0.00000000E+00  5.29284505E-02
  0.00000000E+00  0.00000000E+00 -1.23383632E-01  0.00000000E+00  0.00000000E+00
 -1.06419831E-01  0.00000000E+00  0.00000000E+00 -4.38308152E-01  0.00000000E+00
  0.00000000E+00  0.00000000E+00  0.00000000E+00  0.00000000E+00  0.00000000E+00