fubar                                                                   
SP        UPBE1PBE                                                    6-311+G(d,p)        
Number of atoms                            I                1
Info1-9                                    I   N=           9
          11          10           0           0           0         110
           1          18       -1302
Full Title                                 C   N=           1
fubar       
Route                                      C   N=           3
#PBE1PBE/6-311+G(d,p) scf=tight     
Charge                                     I                0
Multiplicity                               I                3
Number of electrons                        I                6
Number of alpha electrons                  I                4
Number of beta electrons                   I                2
Number of basis functions                  I               22
Number of independent functions            I               22
Number of point charges in /Mol/           I                0
Number of translation vectors              I                0
Atomic numbers                             I   N=           1
           6
Nuclear charges                            R   N=           1
  6.00000000E+00
Current cartesian coordinates              R   N=           3
  0.00000000E+00  0.00000000E+00  0.00000000E+00
Number of symbols in /Mol/                 I                0
Int Atom Types                             I   N=           1
           0
Force Field                                I                0
Atom Types                                 C   N=           1
            
MM charges                                 R   N=           1
  0.00000000E+00
Integer atomic weights                     I   N=           1
          12
Real atomic weights                        R   N=           1
  1.20000000E+01
Atom fragment info                         I   N=           1
           0
Atom residue num                           I   N=           1
           0
Nuclear spins                              I   N=           1
           0
Nuclear ZEff                               R   N=           1
 -3.60000000E+00
Nuclear ZNuc                               R   N=           1
  6.00000000E+00
Nuclear QMom                               R   N=           1
  0.00000000E+00
Nuclear GFac                               R   N=           1
  0.00000000E+00
MicOpt                                     I   N=           1
          -1
Number of residues                         I                0
Number of secondary structures             I                0
SymInf integers                            I   N=          26
           1           8           1           1           1           1
          -1          -1          -1           1          -1          -1
          -1           1          -1          -1          -1          -1
           1           1           1          -1           1           1
           1          -1
RotTr to input orientation                 R   N=          12
  0.00000000E+00  0.00000000E+00 -1.00000000E+00  0.00000000E+00  1.00000000E+00
  0.00000000E+00  1.00000000E+00  0.00000000E+00  0.00000000E+00  0.00000000E+00
  0.00000000E+00  0.00000000E+00
Number of contracted shells                I                6
Number of primitive shells                 I               13
Pure/Cartesian d shells                    I                0
Pure/Cartesian f shells                    I                0
Highest angular momentum                   I                2
Largest degree of contraction              I                6
Shell types                                I   N=           6
           0          -1          -1          -1          -1          -2
Number of primitives per shell             I   N=           6
           6           3           1           1           1           1
Shell to atom map                          I   N=           6
           1           1           1           1           1           1
Primitive exponents                        R   N=          13
  4.56324000E+03  6.82024000E+02  1.54973000E+02  4.44553000E+01  1.30290000E+01
  1.82773000E+00  2.09642000E+01  4.80331000E+00  1.45933000E+00  4.83456000E-01
  1.45585000E-01  4.38000000E-02  6.26000000E-01
Contraction coefficients                   R   N=          13
  1.96665025E-03  1.52306019E-02  7.61269097E-02  2.60801033E-01  6.16462078E-01
  2.21006028E-01  1.14660081E-01  9.19999648E-01 -3.03068213E-03  1.00000000E+00
  1.00000000E+00  1.00000000E+00  1.00000000E+00
P(S=P) Contraction coefficients            R   N=          13
  0.00000000E+00  0.00000000E+00  0.00000000E+00  0.00000000E+00  0.00000000E+00
  0.00000000E+00  4.02486927E-02  2.37593957E-01  8.15853851E-01  1.00000000E+00
  1.00000000E+00  1.00000000E+00  0.00000000E+00
Coordinates of each shell                  R   N=          18
  0.00000000E+00  0.00000000E+00  0.00000000E+00  0.00000000E+00  0.00000000E+00
  0.00000000E+00  0.00000000E+00  0.00000000E+00  0.00000000E+00  0.00000000E+00
  0.00000000E+00  0.00000000E+00  0.00000000E+00  0.00000000E+00  0.00000000E+00
  0.00000000E+00  0.00000000E+00  0.00000000E+00
Num ILSW                                   I              100
ILSW                                       I   N=         100
           1           0           0           0           2           0
           0           0           0           0        1009          -1
           5           0           0           0           0           0
           0           0           0           0           0           0
           1           0           0           0           0           0
           0           0      100000           0          -1           0
           0           0           0           0           0           0
           0           0           0           1           0           0
           0 -2000000000           1           0           0           0
           0           1           4          52           0           0
           0           0          13           0           0           0
           0           0           0           1           0           1
           0           0           0           0           0           0
           0           0           0           0           0           0
           0           0           0           0           0           0
           0           0           0           0           0           0
           0           0           0           0
Num RLSW                                   I               52
RLSW                                       R   N=          52
  7.50000000E-01  7.50000000E-01  1.00000000E+00  1.00000000E+00  2.50000000E-01
  0.00000000E+00  0.00000000E+00  1.00000000E+00  0.00000000E+00  0.00000000E+00
  0.00000000E+00  0.00000000E+00  1.00000000E+00  0.00000000E+00  0.00000000E+00
  0.00000000E+00  0.00000000E+00  1.00000000E+00  0.00000000E+00  0.00000000E+00
  0.00000000E+00  0.00000000E+00  1.00000000E+00  0.00000000E+00  0.00000000E+00
  0.00000000E+00  0.00000000E+00  1.00000000E+00  0.00000000E+00  0.00000000E+00
  0.00000000E+00  0.00000000E+00  1.00000000E+00  0.00000000E+00  0.00000000E+00
  0.00000000E+00  0.00000000E+00  0.00000000E+00  1.00000000E+00  1.00000000E+00
  0.00000000E+00  1.00000000E+00  0.00000000E+00  0.00000000E+00  0.00000000E+00
  0.00000000E+00  0.00000000E+00  0.00000000E+00  0.00000000E+00  0.00000000E+00
  0.00000000E+00  0.00000000E+00
MxBond                                     I                1
NBond                                      I   N=           1
           0
IBond                                      I   N=           1
           0
RBond                                      R   N=           1
  0.00000000E+00
Virial Ratio                               R      2.001925599052637E+00
SCF Energy                                 R     -3.780296247094650E+01
Total Energy                               R     -3.780296247094650E+01
S**2                                       R      2.002945510357756E+00
S**2 after annihilation                    R      2.000000003898290E+00
RMS Density                                R      6.755992000013985E-10
Job Status                                 I                1
Nuclear derivative order                   I                0
External E-field                           R   N=          35
  0.00000000E+00  0.00000000E+00  0.00000000E+00  0.00000000E+00  0.00000000E+00
  0.00000000E+00  0.00000000E+00  0.00000000E+00  0.00000000E+00  0.00000000E+00
  0.00000000E+00  0.00000000E+00  0.00000000E+00  0.00000000E+00  0.00000000E+00
  0.00000000E+00  0.00000000E+00  0.00000000E+00  0.00000000E+00  0.00000000E+00
  0.00000000E+00  0.00000000E+00  0.00000000E+00  0.00000000E+00  0.00000000E+00
  0.00000000E+00  0.00000000E+00  0.00000000E+00  0.00000000E+00  0.00000000E+00
  0.00000000E+00  0.00000000E+00  0.00000000E+00  0.00000000E+00  0.00000000E+00
IOpCl                                      I                1
IROHF                                      I                0
Alpha Orbital Energies                     R   N=          22
 -1.03579523E+01 -6.10571505E-01 -2.81208326E-01 -2.81208326E-01 -1.49006738E-01
  3.85301385E-02  7.37335773E-02  7.37335773E-02  8.22745729E-02  5.27614432E-01
  5.27614432E-01  5.47086670E-01  6.34520260E-01  1.26457529E+00  1.26457529E+00
  1.27327472E+00  1.27327472E+00  1.28804664E+00  2.64212964E+00  2.64212964E+00
  2.66275018E+00  2.32431573E+01
Beta Orbital Energies                      R   N=          22
 -1.03264854E+01 -4.86751265E-01 -1.14304003E-01 -6.17258135E-02 -6.17258135E-02
  6.45427965E-02  9.76047151E-02  1.11787674E-01  1.11787674E-01  5.68880240E-01
  6.05069171E-01  6.05069171E-01  6.94505576E-01  1.33868104E+00  1.35490436E+00
  1.35490436E+00  1.40213801E+00  1.40213801E+00  2.68519157E+00  2.73683815E+00
  2.73683815E+00  2.32726336E+01
Alpha MO coefficients                      R   N=         484
  5.62382056E-01  4.64996435E-01  0.00000000E+00  0.00000000E+00  0.00000000E+00
  1.30255754E-02  0.00000000E+00  0.00000000E+00  0.00000000E+00 -6.45728886E-03
  0.00000000E+00  0.00000000E+00  0.00000000E+00  2.22171309E-03  0.00000000E+00
  0.00000000E+00  0.00000000E+00  2.40113277E-04  0.00000000E+00  0.00000000E+00
 -4.15888396E-04  0.00000000E+00 -1.30712887E-01 -2.11485031E-01  0.00000000E+00
  0.00000000E+00  0.00000000E+00  6.22955265E-01  0.00000000E+00  0.00000000E+00
  0.00000000E+00  4.99044877E-01  0.00000000E+00  0.00000000E+00  0.00000000E+00
 -4.72027532E-03  0.00000000E+00  0.00000000E+00  0.00000000E+00  6.02916644E-03
  0.00000000E+00  0.00000000E+00 -1.04428226E-02  0.00000000E+00  0.00000000E+00
  0.00000000E+00  0.00000000E+00  0.00000000E+00  2.95749104E-01  0.00000000E+00
  0.00000000E+00  0.00000000E+00  4.68454308E-01  0.00000000E+00  0.00000000E+00
  0.00000000E+00  4.12244883E-01  0.00000000E+00  0.00000000E+00  0.00000000E+00
  5.11301357E-02  0.00000000E+00  0.00000000E+00  0.00000000E+00  0.00000000E+00
  0.00000000E+00  0.00000000E+00  0.00000000E+00  0.00000000E+00  2.95749104E-01
  0.00000000E+00  0.00000000E+00  0.00000000E+00  4.68454308E-01  0.00000000E+00
  0.00000000E+00  0.00000000E+00  4.12244883E-01  0.00000000E+00  0.00000000E+00
  0.00000000E+00  5.11301357E-02  0.00000000E+00  0.00000000E+00  0.00000000E+00
  0.00000000E+00  0.00000000E+00  0.00000000E+00  0.00000000E+00  0.00000000E+00
  2.65289267E-01  0.00000000E+00  0.00000000E+00  0.00000000E+00  4.25952590E-01
  0.00000000E+00  0.00000000E+00  0.00000000E+00  4.40989650E-01  0.00000000E+00
  0.00000000E+00  0.00000000E+00  1.24025338E-01  0.00000000E+00  0.00000000E+00
  0.00000000E+00  0.00000000E+00  0.00000000E+00  0.00000000E+00  0.00000000E+00
  4.01631848E-02  6.42292603E-02  0.00000000E+00  0.00000000E+00  0.00000000E+00
 -1.69971905E-01  0.00000000E+00  0.00000000E+00  0.00000000E+00 -8.19914915E-01
  0.00000000E+00  0.00000000E+00  0.00000000E+00  1.47282505E+00  0.00000000E+00
  0.00000000E+00  0.00000000E+00 -7.97475186E-04  0.00000000E+00  0.00000000E+00
  1.38126754E-03  0.00000000E+00  0.00000000E+00  0.00000000E+00  0.00000000E+00
  0.00000000E+00 -1.15578263E-01  0.00000000E+00  0.00000000E+00  0.00000000E+00
 -1.31708234E-01  0.00000000E+00  0.00000000E+00  0.00000000E+00 -3.95431004E-01
  0.00000000E+00  0.00000000E+00  0.00000000E+00  1.18485753E+00  0.00000000E+00
  0.00000000E+00  0.00000000E+00  0.00000000E+00  0.00000000E+00  0.00000000E+00
  0.00000000E+00  0.00000000E+00 -1.15578263E-01  0.00000000E+00  0.00000000E+00
  0.00000000E+00 -1.31708234E-01  0.00000000E+00  0.00000000E+00  0.00000000E+00
 -3.95431004E-01  0.00000000E+00  0.00000000E+00  0.00000000E+00  1.18485753E+00
  0.00000000E+00  0.00000000E+00  0.00000000E+00  0.00000000E+00  0.00000000E+00
  0.00000000E+00  0.00000000E+00  0.00000000E+00 -1.30870427E-01  0.00000000E+00
  0.00000000E+00  0.00000000E+00 -1.57003615E-01  0.00000000E+00  0.00000000E+00
  0.00000000E+00 -4.63118638E-01  0.00000000E+00  0.00000000E+00  0.00000000E+00
  1.19137653E+00  0.00000000E+00  0.00000000E+00  0.00000000E+00  0.00000000E+00
  0.00000000E+00  0.00000000E+00  0.00000000E+00  0.00000000E+00  0.00000000E+00
  0.00000000E+00  0.00000000E+00 -2.50612289E-01  0.00000000E+00  0.00000000E+00
  0.00000000E+00 -8.83612265E-01  0.00000000E+00  0.00000000E+00  0.00000000E+00
  1.62408663E+00  0.00000000E+00  0.00000000E+00  0.00000000E+00 -7.41238169E-01
  0.00000000E+00  0.00000000E+00  0.00000000E+00  0.00000000E+00  0.00000000E+00
  0.00000000E+00  0.00000000E+00  0.00000000E+00 -2.50612289E-01  0.00000000E+00
  0.00000000E+00  0.00000000E+00 -8.83612265E-01  0.00000000E+00  0.00000000E+00
  0.00000000E+00  1.62408663E+00  0.00000000E+00  0.00000000E+00  0.00000000E+00
 -7.41238169E-01  0.00000000E+00  0.00000000E+00  0.00000000E+00  0.00000000E+00
  0.00000000E+00  0.00000000E+00  0.00000000E+00  0.00000000E+00 -2.55070292E-01
  0.00000000E+00  0.00000000E+00  0.00000000E+00 -9.19114914E-01  0.00000000E+00
  0.00000000E+00  0.00000000E+00  1.60324416E+00  0.00000000E+00  0.00000000E+00
  0.00000000E+00 -7.23040250E-01  0.00000000E+00  0.00000000E+00  0.00000000E+00
  0.00000000E+00  0.00000000E+00  0.00000000E+00  0.00000000E+00  1.23073595E-01
  2.52654179E-01  0.00000000E+00  0.00000000E+00  0.00000000E+00 -1.87152301E+00
  0.00000000E+00  0.00000000E+00  0.00000000E+00  2.48231781E+00  0.00000000E+00
  0.00000000E+00  0.00000000E+00 -1.04991237E+00  0.00000000E+00  0.00000000E+00
  0.00000000E+00 -2.91177885E-03  0.00000000E+00  0.00000000E+00  5.04334892E-03
  0.00000000E+00  7.33374389E-17  5.92886426E-17  0.00000000E+00  0.00000000E+00
  0.00000000E+00 -8.25239480E-16  0.00000000E+00  0.00000000E+00  0.00000000E+00
  2.31480524E-15  0.00000000E+00  0.00000000E+00  0.00000000E+00 -1.72848518E-15
  0.00000000E+00  0.00000000E+00  0.00000000E+00  8.66025404E-01  0.00000000E+00
  0.00000000E+00  5.00000000E-01  0.00000000E+00  0.00000000E+00  0.00000000E+00
  0.00000000E+00  0.00000000E+00  0.00000000E+00  0.00000000E+00  0.00000000E+00
  0.00000000E+00  0.00000000E+00  0.00000000E+00  0.00000000E+00  0.00000000E+00
  0.00000000E+00  0.00000000E+00  0.00000000E+00  0.00000000E+00  0.00000000E+00
  0.00000000E+00  0.00000000E+00  1.00000000E+00  0.00000000E+00  0.00000000E+00
  0.00000000E+00  0.00000000E+00  0.00000000E+00  0.00000000E+00  0.00000000E+00
  0.00000000E+00  0.00000000E+00  0.00000000E+00  0.00000000E+00  0.00000000E+00
  0.00000000E+00  0.00000000E+00  0.00000000E+00  0.00000000E+00  0.00000000E+00
  0.00000000E+00  0.00000000E+00  0.00000000E+00  1.00000000E+00  0.00000000E+00
  0.00000000E+00  0.00000000E+00  0.00000000E+00  0.00000000E+00  0.00000000E+00
  0.00000000E+00  0.00000000E+00  0.00000000E+00  0.00000000E+00  0.00000000E+00
  0.00000000E+00  0.00000000E+00  0.00000000E+00  0.00000000E+00  0.00000000E+00
  0.00000000E+00  0.00000000E+00  0.00000000E+00  0.00000000E+00  0.00000000E+00
  0.00000000E+00  0.00000000E+00  0.00000000E+00  1.00000000E+00 -2.07606923E-03
 -3.91275422E-03  0.00000000E+00  0.00000000E+00  0.00000000E+00  1.86920020E-02
  0.00000000E+00  0.00000000E+00  0.00000000E+00 -7.13606528E-03  0.00000000E+00
  0.00000000E+00  0.00000000E+00  3.71025579E-03  0.00000000E+00  0.00000000E+00
  0.00000000E+00 -4.99954475E-01  0.00000000E+00  0.00000000E+00  8.65946552E-01
  0.00000000E+00  0.00000000E+00  0.00000000E+00  0.00000000E+00  0.00000000E+00
 -1.31695447E+00  0.00000000E+00  0.00000000E+00  0.00000000E+00  1.58862703E+00
  0.00000000E+00  0.00000000E+00  0.00000000E+00 -8.71869218E-01  0.00000000E+00
  0.00000000E+00  0.00000000E+00  2.86756665E-01  0.00000000E+00  0.00000000E+00
  0.00000000E+00  0.00000000E+00  0.00000000E+00  0.00000000E+00  0.00000000E+00
  0.00000000E+00 -1.31695447E+00  0.00000000E+00  0.00000000E+00  0.00000000E+00
  1.58862703E+00  0.00000000E+00  0.00000000E+00  0.00000000E+00 -8.71869218E-01
  0.00000000E+00  0.00000000E+00  0.00000000E+00  2.86756665E-01  0.00000000E+00
  0.00000000E+00  0.00000000E+00  0.00000000E+00  0.00000000E+00  0.00000000E+00
  0.00000000E+00  0.00000000E+00 -1.32114918E+00  0.00000000E+00  0.00000000E+00
  0.00000000E+00  1.57811438E+00  0.00000000E+00  0.00000000E+00  0.00000000E+00
 -8.63007677E-01  0.00000000E+00  0.00000000E+00  0.00000000E+00  2.83932269E-01
  0.00000000E+00  0.00000000E+00  0.00000000E+00  0.00000000E+00  0.00000000E+00
  0.00000000E+00  0.00000000E+00 -2.02438047E+00  2.16096687E+00  0.00000000E+00
  0.00000000E+00  0.00000000E+00 -4.08790747E-01  0.00000000E+00  0.00000000E+00
  0.00000000E+00  3.24695675E-01  0.00000000E+00  0.00000000E+00  0.00000000E+00
 -1.15309260E-01  0.00000000E+00  0.00000000E+00  0.00000000E+00 -2.72008431E-06
  0.00000000E+00  0.00000000E+00  4.71132422E-06  0.00000000E+00
Beta MO coefficients                       R   N=         484
  5.63938336E-01  4.64561110E-01  0.00000000E+00  0.00000000E+00  0.00000000E+00
  9.66181787E-03  0.00000000E+00  0.00000000E+00  0.00000000E+00 -5.08173590E-03
  0.00000000E+00  0.00000000E+00  0.00000000E+00  1.71936237E-03  0.00000000E+00
  0.00000000E+00  0.00000000E+00 -1.93621455E-04  0.00000000E+00  0.00000000E+00
  3.35362198E-04  0.00000000E+00 -1.26781056E-01 -2.01880803E-01  0.00000000E+00
  0.00000000E+00  0.00000000E+00  5.77719765E-01  0.00000000E+00  0.00000000E+00
  0.00000000E+00  5.25855376E-01  0.00000000E+00  0.00000000E+00  0.00000000E+00
  1.79638091E-02  0.00000000E+00  0.00000000E+00  0.00000000E+00 -1.38484426E-02
  0.00000000E+00  0.00000000E+00  2.39862061E-02  0.00000000E+00  0.00000000E+00
  0.00000000E+00  2.60879538E-01  0.00000000E+00  0.00000000E+00  0.00000000E+00
  4.08094730E-01  0.00000000E+00  0.00000000E+00  0.00000000E+00  4.44006454E-01
  0.00000000E+00  0.00000000E+00  0.00000000E+00  1.54351912E-01  0.00000000E+00
  0.00000000E+00  0.00000000E+00  0.00000000E+00  0.00000000E+00  0.00000000E+00
  0.00000000E+00  0.00000000E+00  0.00000000E+00  0.00000000E+00  2.42308767E-01
  0.00000000E+00  0.00000000E+00  0.00000000E+00  3.62764732E-01  0.00000000E+00
  0.00000000E+00  0.00000000E+00  4.36913557E-01  0.00000000E+00  0.00000000E+00
  0.00000000E+00  2.50988684E-01  0.00000000E+00  0.00000000E+00  0.00000000E+00
  0.00000000E+00  0.00000000E+00  0.00000000E+00  0.00000000E+00  0.00000000E+00
  0.00000000E+00  0.00000000E+00  2.42308767E-01  0.00000000E+00  0.00000000E+00
  0.00000000E+00  3.62764732E-01  0.00000000E+00  0.00000000E+00  0.00000000E+00
  4.36913557E-01  0.00000000E+00  0.00000000E+00  0.00000000E+00  2.50988684E-01
  0.00000000E+00  0.00000000E+00  0.00000000E+00  0.00000000E+00  0.00000000E+00
  4.12014950E-02  6.40266515E-02  0.00000000E+00  0.00000000E+00  0.00000000E+00
 -1.44816833E-01  0.00000000E+00  0.00000000E+00  0.00000000E+00 -8.91848479E-01
  0.00000000E+00  0.00000000E+00  0.00000000E+00  1.49628117E+00  0.00000000E+00
  0.00000000E+00  0.00000000E+00  3.97455659E-03  0.00000000E+00  0.00000000E+00
 -6.88413396E-03  0.00000000E+00  0.00000000E+00  0.00000000E+00 -1.37721575E-01
  0.00000000E+00  0.00000000E+00  0.00000000E+00 -1.60543462E-01  0.00000000E+00
  0.00000000E+00  0.00000000E+00 -4.93286528E-01  0.00000000E+00  0.00000000E+00
  0.00000000E+00  1.19398163E+00  0.00000000E+00  0.00000000E+00  0.00000000E+00
  0.00000000E+00  0.00000000E+00  0.00000000E+00  0.00000000E+00  0.00000000E+00
  0.00000000E+00  0.00000000E+00 -1.56032565E-01  0.00000000E+00  0.00000000E+00
  0.00000000E+00 -1.70331195E-01  0.00000000E+00  0.00000000E+00  0.00000000E+00
 -5.81652803E-01  0.00000000E+00  0.00000000E+00  0.00000000E+00  1.19420595E+00
  0.00000000E+00  0.00000000E+00  0.00000000E+00  0.00000000E+00  0.00000000E+00
  0.00000000E+00  0.00000000E+00  0.00000000E+00  0.00000000E+00  0.00000000E+00
 -1.56032565E-01  0.00000000E+00  0.00000000E+00  0.00000000E+00 -1.70331195E-01
  0.00000000E+00  0.00000000E+00  0.00000000E+00 -5.81652803E-01  0.00000000E+00
  0.00000000E+00  0.00000000E+00  1.19420595E+00  0.00000000E+00  0.00000000E+00
  0.00000000E+00  0.00000000E+00  0.00000000E+00  0.00000000E+00  0.00000000E+00
 -2.57553567E-01  0.00000000E+00  0.00000000E+00  0.00000000E+00 -9.26862482E-01
  0.00000000E+00  0.00000000E+00  0.00000000E+00  1.59503720E+00  0.00000000E+00
  0.00000000E+00  0.00000000E+00 -7.13364612E-01  0.00000000E+00  0.00000000E+00
  0.00000000E+00  0.00000000E+00  0.00000000E+00  0.00000000E+00  0.00000000E+00
  0.00000000E+00  0.00000000E+00  0.00000000E+00 -2.63507031E-01  0.00000000E+00
  0.00000000E+00  0.00000000E+00 -9.48191652E-01  0.00000000E+00  0.00000000E+00
  0.00000000E+00  1.57108370E+00  0.00000000E+00  0.00000000E+00  0.00000000E+00
 -6.86309814E-01  0.00000000E+00  0.00000000E+00  0.00000000E+00  0.00000000E+00
  0.00000000E+00  0.00000000E+00  0.00000000E+00  0.00000000E+00  0.00000000E+00
  0.00000000E+00 -2.63507031E-01  0.00000000E+00  0.00000000E+00  0.00000000E+00
 -9.48191652E-01  0.00000000E+00  0.00000000E+00  0.00000000E+00  1.57108370E+00
  0.00000000E+00  0.00000000E+00  0.00000000E+00 -6.86309814E-01  0.00000000E+00
  0.00000000E+00  0.00000000E+00  0.00000000E+00  0.00000000E+00  1.26579407E-01
  2.57274082E-01  0.00000000E+00  0.00000000E+00  0.00000000E+00 -1.88749181E+00
  0.00000000E+00  0.00000000E+00  0.00000000E+00  2.45173839E+00  0.00000000E+00
  0.00000000E+00  0.00000000E+00 -1.01605337E+00  0.00000000E+00  0.00000000E+00
  0.00000000E+00  7.02080767E-03  0.00000000E+00  0.00000000E+00 -1.21603956E-02
  0.00000000E+00  6.24205769E-03  8.63949929E-03  0.00000000E+00  0.00000000E+00
  0.00000000E+00 -4.35115298E-02  0.00000000E+00  0.00000000E+00  0.00000000E+00
  1.26458606E-02  0.00000000E+00  0.00000000E+00  0.00000000E+00 -2.82464655E-03
  0.00000000E+00  0.00000000E+00  0.00000000E+00 -4.99742985E-01  0.00000000E+00
  0.00000000E+00  8.65580241E-01  0.00000000E+00  0.00000000E+00  0.00000000E+00
  0.00000000E+00  0.00000000E+00  0.00000000E+00  0.00000000E+00  0.00000000E+00
  0.00000000E+00  0.00000000E+00  0.00000000E+00  0.00000000E+00  0.00000000E+00
  0.00000000E+00  0.00000000E+00  0.00000000E+00  0.00000000E+00  0.00000000E+00
  0.00000000E+00  1.00000000E+00  0.00000000E+00  0.00000000E+00  0.00000000E+00
  0.00000000E+00  0.00000000E+00  0.00000000E+00  0.00000000E+00  0.00000000E+00
  0.00000000E+00  0.00000000E+00  0.00000000E+00  0.00000000E+00  0.00000000E+00
  0.00000000E+00  0.00000000E+00  0.00000000E+00  0.00000000E+00  0.00000000E+00
  0.00000000E+00  0.00000000E+00  0.00000000E+00  0.00000000E+00  0.00000000E+00
  0.00000000E+00  1.00000000E+00  0.00000000E+00  0.00000000E+00  0.00000000E+00
  0.00000000E+00  0.00000000E+00  0.00000000E+00  0.00000000E+00  0.00000000E+00
  0.00000000E+00  0.00000000E+00  0.00000000E+00  0.00000000E+00  0.00000000E+00
  0.00000000E+00  0.00000000E+00  0.00000000E+00  0.00000000E+00  0.00000000E+00
  0.00000000E+00  1.00000000E+00  0.00000000E+00  0.00000000E+00  3.09605618E-16
  5.73390210E-16  0.00000000E+00  0.00000000E+00  0.00000000E+00 -4.61745127E-15
  0.00000000E+00  0.00000000E+00  0.00000000E+00  7.11785710E-15  0.00000000E+00
  0.00000000E+00  0.00000000E+00 -3.31640862E-15  0.00000000E+00  0.00000000E+00
  0.00000000E+00  8.66025404E-01  0.00000000E+00  0.00000000E+00  5.00000000E-01
  0.00000000E+00  0.00000000E+00  0.00000000E+00 -1.32084907E+00  0.00000000E+00
  0.00000000E+00  0.00000000E+00  1.57794594E+00  0.00000000E+00  0.00000000E+00
  0.00000000E+00 -8.59946404E-01  0.00000000E+00  0.00000000E+00  0.00000000E+00
  2.82593973E-01  0.00000000E+00  0.00000000E+00  0.00000000E+00  0.00000000E+00
  0.00000000E+00  0.00000000E+00  0.00000000E+00  0.00000000E+00  0.00000000E+00
  0.00000000E+00  0.00000000E+00 -1.32117592E+00  0.00000000E+00  0.00000000E+00
  0.00000000E+00  1.57531730E+00  0.00000000E+00  0.00000000E+00  0.00000000E+00
 -8.52412689E-01  0.00000000E+00  0.00000000E+00  0.00000000E+00  2.79321896E-01
  0.00000000E+00  0.00000000E+00  0.00000000E+00  0.00000000E+00  0.00000000E+00
  0.00000000E+00  0.00000000E+00  0.00000000E+00 -1.32117592E+00  0.00000000E+00
  0.00000000E+00  0.00000000E+00  1.57531730E+00  0.00000000E+00  0.00000000E+00
  0.00000000E+00 -8.52412689E-01  0.00000000E+00  0.00000000E+00  0.00000000E+00
  2.79321896E-01  0.00000000E+00  0.00000000E+00  0.00000000E+00  0.00000000E+00
  0.00000000E+00  0.00000000E+00 -2.02395195E+00  2.16142624E+00  0.00000000E+00
  0.00000000E+00  0.00000000E+00 -4.09691401E-01  0.00000000E+00  0.00000000E+00
  0.00000000E+00  3.24966805E-01  0.00000000E+00  0.00000000E+00  0.00000000E+00
 -1.15374933E-01  0.00000000E+00  0.00000000E+00  0.00000000E+00 -2.07735952E-04
  0.00000000E+00  0.00000000E+00  3.59809223E-04  0.00000000E+00
Orthonormal basis                          R   N=         484
  2.34500310E-01  2.51032831E-01  0.00000000E+00  0.00000000E+00  0.00000000E+00
  3.16628792E-01  0.00000000E+00  0.00000000E+00  0.00000000E+00  3.12562189E-01
  0.00000000E+00  0.00000000E+00  0.00000000E+00  2.45378104E-01  0.00000000E+00
  0.00000000E+00  0.00000000E+00  8.21350379E-18  0.00000000E+00  0.00000000E+00
  1.64270076E-17  0.00000000E+00  4.47791800E-01  4.32246117E-01  0.00000000E+00
  0.00000000E+00  0.00000000E+00 -9.34438641E-02  0.00000000E+00  0.00000000E+00
  0.00000000E+00 -3.13112702E-01  0.00000000E+00  0.00000000E+00  0.00000000E+00
 -3.50728413E-01  0.00000000E+00  0.00000000E+00  0.00000000E+00 -3.13484455E-17
  0.00000000E+00  0.00000000E+00 -6.26968910E-17  0.00000000E+00  3.94756804E-30
 -8.70637385E-30  0.00000000E+00  0.00000000E+00  0.00000000E+00  2.45218762E-29
  0.00000000E+00  0.00000000E+00  0.00000000E+00 -3.74942061E-29  0.00000000E+00
  0.00000000E+00  0.00000000E+00  2.12552944E-29  0.00000000E+00  0.00000000E+00
  0.00000000E+00  8.94427191E-01  0.00000000E+00  0.00000000E+00 -4.47213595E-01
  0.00000000E+00  7.90935510E-17  6.82727995E-17  0.00000000E+00  0.00000000E+00
  0.00000000E+00 -1.60281548E-16  0.00000000E+00  0.00000000E+00  0.00000000E+00
 -1.18418330E-16  0.00000000E+00  0.00000000E+00  0.00000000E+00  1.26691888E-16
  0.00000000E+00  0.00000000E+00  0.00000000E+00  4.47213595E-01  0.00000000E+00
  0.00000000E+00  8.94427191E-01  0.00000000E+00 -3.25846947E-01 -1.31206246E-01
  0.00000000E+00  0.00000000E+00  0.00000000E+00  9.59027873E-01  0.00000000E+00
  0.00000000E+00  0.00000000E+00  1.08563778E-01  0.00000000E+00  0.00000000E+00
  0.00000000E+00 -9.30158314E-01  0.00000000E+00  0.00000000E+00  0.00000000E+00
  1.37930956E-16  0.00000000E+00  0.00000000E+00  2.75861912E-16  0.00000000E+00
  1.84976794E+00 -1.83528458E+00  0.00000000E+00  0.00000000E+00  0.00000000E+00
 -3.26846453E-01  0.00000000E+00  0.00000000E+00  0.00000000E+00  9.04466787E-01
  0.00000000E+00  0.00000000E+00  0.00000000E+00 -6.20542711E-01  0.00000000E+00
  0.00000000E+00  0.00000000E+00  3.92993035E-17  0.00000000E+00  0.00000000E+00
  7.85986070E-17  0.00000000E+00 -8.15423007E-01  1.16763073E+00  0.00000000E+00
  0.00000000E+00  0.00000000E+00 -1.71803447E+00  0.00000000E+00  0.00000000E+00
  0.00000000E+00  2.48256861E+00  0.00000000E+00  0.00000000E+00  0.00000000E+00
 -1.36065360E+00  0.00000000E+00  0.00000000E+00  0.00000000E+00  8.21131481E-17
  0.00000000E+00  0.00000000E+00  1.64226296E-16  0.00000000E+00  0.00000000E+00
  0.00000000E+00  0.00000000E+00  0.00000000E+00  0.00000000E+00  0.00000000E+00
  0.00000000E+00  0.00000000E+00  0.00000000E+00  0.00000000E+00  0.00000000E+00
  0.00000000E+00  0.00000000E+00  0.00000000E+00  0.00000000E+00  0.00000000E+00
  0.00000000E+00  0.00000000E+00  0.00000000E+00  0.00000000E+00  0.00000000E+00
  1.00000000E+00  0.00000000E+00  0.00000000E+00  0.00000000E+00  0.00000000E+00
  0.00000000E+00  0.00000000E+00  0.00000000E+00  0.00000000E+00  0.00000000E+00
  0.00000000E+00  0.00000000E+00  0.00000000E+00  0.00000000E+00  0.00000000E+00
  0.00000000E+00  0.00000000E+00  0.00000000E+00  0.00000000E+00  1.00000000E+00
  0.00000000E+00  0.00000000E+00  0.00000000E+00  0.00000000E+00  0.00000000E+00
  0.00000000E+00  0.00000000E+00  0.00000000E+00  0.00000000E+00  0.00000000E+00
  0.00000000E+00  0.00000000E+00  0.00000000E+00  0.00000000E+00  0.00000000E+00
  0.00000000E+00  0.00000000E+00  0.00000000E+00  0.00000000E+00  0.00000000E+00
  0.00000000E+00  0.00000000E+00  1.00000000E+00  0.00000000E+00  0.00000000E+00
  0.00000000E+00  0.00000000E+00  0.00000000E+00  0.00000000E+00  2.67356255E-01
  0.00000000E+00  0.00000000E+00  0.00000000E+00  3.79771107E-01  0.00000000E+00
  0.00000000E+00  0.00000000E+00  3.84495861E-01  0.00000000E+00  0.00000000E+00
  0.00000000E+00  2.77500970E-01  0.00000000E+00  0.00000000E+00  0.00000000E+00
  0.00000000E+00  0.00000000E+00  0.00000000E+00  0.00000000E+00  0.00000000E+00
  0.00000000E+00  5.92090527E-01  0.00000000E+00  0.00000000E+00  0.00000000E+00
  3.04840631E-01  0.00000000E+00  0.00000000E+00  0.00000000E+00 -2.96821000E-01