fubar                                                                   
SP        UPBE1PBE                                                    6-311+G(d,p)        
Number of atoms                            I                1
Info1-9                                    I   N=           9
          11          10           0           0           0         110
           1          18       -1302
Full Title                                 C   N=           1
fubar       
Route                                      C   N=           3
#PBE1PBE/6-311+G(d,p) scf=tight     
Charge                                     I                0
Multiplicity                               I                2
Number of electrons                        I               17
Number of alpha electrons                  I                9
Number of beta electrons                   I                8
Number of basis functions                  I               30
Number of independent functions            I               30
Number of point charges in /Mol/           I                0
Number of translation vectors              I                0
Atomic numbers                             I   N=           1
          17
Nuclear charges                            R   N=           1
  1.70000000E+01
Current cartesian coordinates              R   N=           3
  0.00000000E+00  0.00000000E+00  0.00000000E+00
Number of symbols in /Mol/                 I                0
Int Atom Types                             I   N=           1
           0
Force Field                                I                0
Atom Types                                 C   N=           1
            
MM charges                                 R   N=           1
  0.00000000E+00
Integer atomic weights                     I   N=           1
          35
Real atomic weights                        R   N=           1
  3.49688527E+01
Atom fragment info                         I   N=           1
           0
Atom residue num                           I   N=           1
           0
Nuclear spins                              I   N=           1
           3
Nuclear ZEff                               R   N=           1
 -1.42400000E+01
Nuclear ZNuc                               R   N=           1
  1.70000000E+01
Nuclear QMom                               R   N=           1
 -8.16500000E+00
Nuclear GFac                               R   N=           1
  8.21874000E-01
MicOpt                                     I   N=           1
          -1
Number of residues                         I                0
Number of secondary structures             I                0
SymInf integers                            I   N=          26
           1           8           1           1           1           1
          -1          -1          -1           1          -1          -1
          -1           1          -1          -1          -1          -1
           1           1           1          -1           1           1
           1          -1
RotTr to input orientation                 R   N=          12
  0.00000000E+00  0.00000000E+00 -1.00000000E+00  0.00000000E+00  1.00000000E+00
  0.00000000E+00  1.00000000E+00  0.00000000E+00  0.00000000E+00  0.00000000E+00
  0.00000000E+00  0.00000000E+00
Number of contracted shells                I               13
Number of primitive shells                 I               25
Pure/Cartesian d shells                    I                0
Pure/Cartesian f shells                    I                0
Highest angular momentum                   I                2
Largest degree of contraction              I                6
Shell types                                I   N=          13
           0           0           0           0           0           0
          -1           1           1           1           1           1
          -2
Number of primitives per shell             I   N=          13
           6           3           1           1           1           1
           1           5           2           1           1           1
           1
Shell to atom map                          I   N=          13
           1           1           1           1           1           1
           1           1           1           1           1           1
           1
Primitive exponents                        R   N=          25
  1.05819000E+05  1.58720000E+04  3.61965000E+03  1.03080000E+03  3.39908000E+02
  1.24538000E+02  1.24538000E+02  4.95135000E+01  2.08056000E+01  6.58346000E+00
  2.56468000E+00  5.59763000E-01  1.83273000E-01  4.83000000E-02  5.89776000E+02
  1.39849000E+02  4.51413000E+01  1.68733000E+01  2.77152000E+00  6.74110000E+00
  2.77152000E+00  1.02387000E+00  3.81368000E-01  1.09437000E-01  7.50000000E-01
Contraction coefficients                   R   N=          25
  7.38000247E-04  5.71800191E-03  2.94950099E-02  1.17286039E-01  3.62949121E-01
  5.84149195E-01  1.34176973E-01  6.24249876E-01  2.91755942E-01  1.00000000E+00
  1.00000000E+00  1.00000000E+00  1.00000000E+00  1.00000000E+00  3.66556935E-03
  2.83679194E-02  1.24756603E-01  3.39654631E-01  7.47585963E-01 -1.57224381E+00
  9.92388882E-01  1.00000000E+00  1.00000000E+00  1.00000000E+00  1.00000000E+00
P(S=P) Contraction coefficients            R   N=          25
  0.00000000E+00  0.00000000E+00  0.00000000E+00  0.00000000E+00  0.00000000E+00
  0.00000000E+00  0.00000000E+00  0.00000000E+00  0.00000000E+00  0.00000000E+00
  0.00000000E+00  0.00000000E+00  0.00000000E+00  1.00000000E+00  0.00000000E+00
  0.00000000E+00  0.00000000E+00  0.00000000E+00  0.00000000E+00  0.00000000E+00
  0.00000000E+00  0.00000000E+00  0.00000000E+00  0.00000000E+00  0.00000000E+00
Coordinates of each shell                  R   N=          39
  0.00000000E+00  0.00000000E+00  0.00000000E+00  0.00000000E+00  0.00000000E+00
  0.00000000E+00  0.00000000E+00  0.00000000E+00  0.00000000E+00  0.00000000E+00
  0.00000000E+00  0.00000000E+00  0.00000000E+00  0.00000000E+00  0.00000000E+00
  0.00000000E+00  0.00000000E+00  0.00000000E+00  0.00000000E+00  0.00000000E+00
  0.00000000E+00  0.00000000E+00  0.00000000E+00  0.00000000E+00  0.00000000E+00
  0.00000000E+00  0.00000000E+00  0.00000000E+00  0.00000000E+00  0.00000000E+00
  0.00000000E+00  0.00000000E+00  0.00000000E+00  0.00000000E+00  0.00000000E+00
  0.00000000E+00  0.00000000E+00  0.00000000E+00  0.00000000E+00
Num ILSW                                   I              100
ILSW                                       I   N=         100
           1           0           0           0           2           0
           0           0           0           0        1009          -1
           5           0           0           0           0           0
           0           0           0           0           0           0
           1           0           0           0           0           0
           0           0      100000           0          -1           0
           0           0           0           0           0           0
           0           0           0           1           0           0
           0 -2000000000           1           0           0           0
           0           1           4          52           0           0
           0           0          13           0           0           0
           0           0           0           1           0           1
           0           0           0           0           0           0
           0           0           0           0           0           0
           0           0           0           0           0           0
           0           0           0           0           0           0
           0           0           0           0
Num RLSW                                   I               52
RLSW                                       R   N=          52
  7.50000000E-01  7.50000000E-01  1.00000000E+00  1.00000000E+00  2.50000000E-01
  0.00000000E+00  0.00000000E+00  1.00000000E+00  0.00000000E+00  0.00000000E+00
  0.00000000E+00  0.00000000E+00  1.00000000E+00  0.00000000E+00  0.00000000E+00
  0.00000000E+00  0.00000000E+00  1.00000000E+00  0.00000000E+00  0.00000000E+00
  0.00000000E+00  0.00000000E+00  1.00000000E+00  0.00000000E+00  0.00000000E+00
  0.00000000E+00  0.00000000E+00  1.00000000E+00  0.00000000E+00  0.00000000E+00
  0.00000000E+00  0.00000000E+00  1.00000000E+00  0.00000000E+00  0.00000000E+00
  0.00000000E+00  0.00000000E+00  0.00000000E+00  1.00000000E+00  1.00000000E+00
  0.00000000E+00  1.00000000E+00  0.00000000E+00  0.00000000E+00  0.00000000E+00
  0.00000000E+00  0.00000000E+00  0.00000000E+00  0.00000000E+00  0.00000000E+00
  0.00000000E+00  0.00000000E+00
MxBond                                     I                1
NBond                                      I   N=           1
           0
IBond                                      I   N=           1
           0
RBond                                      R   N=           1
  0.00000000E+00
Virial Ratio                               R      2.001922599945759E+00
SCF Energy                                 R     -4.599960404830954E+02
Total Energy                               R     -4.599960404830954E+02
S**2                                       R      7.522084798290187E-01
S**2 after annihilation                    R      7.500009015903888E-01
RMS Density                                R      5.252469225691255E-09
Job Status                                 I                1
Nuclear derivative order                   I                0
External E-field                           R   N=          35
  0.00000000E+00  0.00000000E+00  0.00000000E+00  0.00000000E+00  0.00000000E+00
  0.00000000E+00  0.00000000E+00  0.00000000E+00  0.00000000E+00  0.00000000E+00
  0.00000000E+00  0.00000000E+00  0.00000000E+00  0.00000000E+00  0.00000000E+00
  0.00000000E+00  0.00000000E+00  0.00000000E+00  0.00000000E+00  0.00000000E+00
  0.00000000E+00  0.00000000E+00  0.00000000E+00  0.00000000E+00  0.00000000E+00
  0.00000000E+00  0.00000000E+00  0.00000000E+00  0.00000000E+00  0.00000000E+00
  0.00000000E+00  0.00000000E+00  0.00000000E+00  0.00000000E+00  0.00000000E+00
IOpCl                                      I                1
IROHF                                      I                0
Alpha Orbital Energies                     R   N=          30
 -1.01779517E+02 -9.58585784E+00 -7.33463766E+00 -7.31012999E+00 -7.31012999E+00
 -8.72182404E-01 -4.28656363E-01 -3.69384227E-01 -3.69384227E-01  3.54179760E-02
  7.16294214E-02  7.96268857E-02  7.96268857E-02  4.33871498E-01  4.57988706E-01
  4.57988706E-01  7.78523572E-01  7.97643549E-01  7.99281055E-01  7.99281055E-01
  8.48576693E-01  8.48576693E-01  2.18973874E+00  2.23598009E+00  2.23598009E+00
  9.48067650E+00  2.57426059E+01  2.57845325E+01  2.57845325E+01  2.15629770E+02
Beta Orbital Energies                      R   N=          30
 -1.01772653E+02 -9.57901580E+00 -7.31067436E+00 -7.30622518E+00 -7.30622518E+00
 -8.11454671E-01 -3.51685798E-01 -3.51685798E-01 -2.34779597E-01  4.29939848E-02
  8.13573730E-02  8.13573730E-02  8.53085741E-02  4.63756724E-01  4.63756724E-01
  4.70115123E-01  8.15018258E-01  8.57341296E-01  8.57341296E-01  8.65687793E-01
  8.65687793E-01  8.79829749E-01  2.24638450E+00  2.24638450E+00  2.25008074E+00
  9.49490200E+00  2.57746691E+01  2.57896539E+01  2.57896539E+01  2.15635824E+02
Alpha MO coefficients                      R   N=         900
  4.11763231E-01  6.53981584E-01  1.47636922E-02 -3.65001049E-03  1.19520362E-03
 -6.25132875E-04  1.72504827E-04  0.00000000E+00  0.00000000E+00  0.00000000E+00
  0.00000000E+00  0.00000000E+00  0.00000000E+00  0.00000000E+00  0.00000000E+00
  0.00000000E+00  0.00000000E+00  0.00000000E+00  0.00000000E+00  0.00000000E+00
  0.00000000E+00  0.00000000E+00  0.00000000E+00  0.00000000E+00  0.00000000E+00
 -2.59631057E-07  0.00000000E+00  0.00000000E+00 -4.49694181E-07  0.00000000E+00
 -1.21853784E-01 -3.27836556E-01  5.00509165E-01  6.09667706E-01  5.36675362E-02
 -1.57947300E-02  3.95843349E-03  0.00000000E+00  0.00000000E+00  0.00000000E+00
  0.00000000E+00  0.00000000E+00  0.00000000E+00  0.00000000E+00  0.00000000E+00
  0.00000000E+00  0.00000000E+00  0.00000000E+00  0.00000000E+00  0.00000000E+00
  0.00000000E+00  0.00000000E+00  0.00000000E+00  0.00000000E+00  0.00000000E+00
 -4.17652217E-04  0.00000000E+00  0.00000000E+00 -7.23394860E-04  0.00000000E+00
  0.00000000E+00  0.00000000E+00  0.00000000E+00  0.00000000E+00  0.00000000E+00
  0.00000000E+00  0.00000000E+00  0.00000000E+00 -1.12636277E-04  0.00000000E+00
  0.00000000E+00  8.02936169E-01  0.00000000E+00  0.00000000E+00 -2.74311057E-01
  0.00000000E+00  0.00000000E+00  5.41937266E-02  0.00000000E+00  0.00000000E+00
 -1.54691737E-03  0.00000000E+00  0.00000000E+00  3.65430704E-04  0.00000000E+00
  0.00000000E+00  0.00000000E+00  0.00000000E+00  0.00000000E+00  0.00000000E+00
  0.00000000E+00  0.00000000E+00  0.00000000E+00  0.00000000E+00  0.00000000E+00
  0.00000000E+00  0.00000000E+00 -4.66819597E-05  0.00000000E+00  0.00000000E+00
  8.03390297E-01  0.00000000E+00  0.00000000E+00 -2.74629729E-01  0.00000000E+00
  0.00000000E+00  5.27698515E-02  0.00000000E+00  0.00000000E+00 -1.26970094E-03
  0.00000000E+00  0.00000000E+00  2.20138889E-04  0.00000000E+00  0.00000000E+00
  0.00000000E+00  0.00000000E+00  0.00000000E+00  0.00000000E+00  0.00000000E+00
  0.00000000E+00  0.00000000E+00  0.00000000E+00  0.00000000E+00  0.00000000E+00
  0.00000000E+00  0.00000000E+00  0.00000000E+00  0.00000000E+00 -4.66819597E-05
  0.00000000E+00  0.00000000E+00  8.03390297E-01  0.00000000E+00  0.00000000E+00
 -2.74629729E-01  0.00000000E+00  0.00000000E+00  5.27698515E-02  0.00000000E+00
  0.00000000E+00 -1.26970094E-03  0.00000000E+00  0.00000000E+00  2.20138889E-04
  0.00000000E+00  0.00000000E+00  0.00000000E+00  0.00000000E+00  0.00000000E+00
  3.87873144E-02  1.10923740E-01 -2.22294131E-01 -4.29031145E-01  6.68209112E-01
  5.59928374E-01 -1.32113706E-02  0.00000000E+00  0.00000000E+00  0.00000000E+00
  0.00000000E+00  0.00000000E+00  0.00000000E+00  0.00000000E+00  0.00000000E+00
  0.00000000E+00  0.00000000E+00  0.00000000E+00  0.00000000E+00  0.00000000E+00
  0.00000000E+00  0.00000000E+00  0.00000000E+00  0.00000000E+00  0.00000000E+00
 -1.57632204E-02  0.00000000E+00  0.00000000E+00 -2.73026987E-02  0.00000000E+00
  0.00000000E+00  0.00000000E+00  0.00000000E+00  0.00000000E+00  0.00000000E+00
  0.00000000E+00  0.00000000E+00  0.00000000E+00 -3.59176265E-02  0.00000000E+00
  0.00000000E+00 -2.36832539E-01  0.00000000E+00  0.00000000E+00  8.85536648E-02
  0.00000000E+00  0.00000000E+00  2.67947433E-01  0.00000000E+00  0.00000000E+00
  6.18531270E-01  0.00000000E+00  0.00000000E+00  3.15304706E-01  0.00000000E+00
  0.00000000E+00  0.00000000E+00  0.00000000E+00  0.00000000E+00  0.00000000E+00
  0.00000000E+00  0.00000000E+00  0.00000000E+00  0.00000000E+00  0.00000000E+00
  0.00000000E+00  0.00000000E+00  0.00000000E+00  0.00000000E+00 -2.98366299E-02
  0.00000000E+00  0.00000000E+00 -2.31016033E-01  0.00000000E+00  0.00000000E+00
  8.70775953E-02  0.00000000E+00  0.00000000E+00  2.62928591E-01  0.00000000E+00
  0.00000000E+00  5.94719485E-01  0.00000000E+00  0.00000000E+00  3.46583838E-01
  0.00000000E+00  0.00000000E+00  0.00000000E+00  0.00000000E+00  0.00000000E+00
  0.00000000E+00  0.00000000E+00  0.00000000E+00  0.00000000E+00  0.00000000E+00
  0.00000000E+00  0.00000000E+00 -2.98366299E-02  0.00000000E+00  0.00000000E+00
 -2.31016033E-01  0.00000000E+00  0.00000000E+00  8.70775953E-02  0.00000000E+00
  0.00000000E+00  2.62928591E-01  0.00000000E+00  0.00000000E+00  5.94719485E-01
  0.00000000E+00  0.00000000E+00  3.46583838E-01  0.00000000E+00  0.00000000E+00
  0.00000000E+00  0.00000000E+00  0.00000000E+00  0.00000000E+00  0.00000000E+00
 -1.14745591E-02 -3.35597824E-02  7.37032231E-02  1.20340476E-01 -1.71408961E-01
 -7.75095350E-01  1.40481842E+00  0.00000000E+00  0.00000000E+00  0.00000000E+00
  0.00000000E+00  0.00000000E+00  0.00000000E+00  0.00000000E+00  0.00000000E+00
  0.00000000E+00  0.00000000E+00  0.00000000E+00  0.00000000E+00  0.00000000E+00
  0.00000000E+00  0.00000000E+00  0.00000000E+00  0.00000000E+00  0.00000000E+00
  5.62452300E-03  0.00000000E+00  0.00000000E+00  9.74195961E-03  0.00000000E+00
  0.00000000E+00  0.00000000E+00  0.00000000E+00  0.00000000E+00  0.00000000E+00
  0.00000000E+00  0.00000000E+00  0.00000000E+00  1.40372710E+00  0.00000000E+00
  0.00000000E+00  6.97965897E-02  0.00000000E+00  0.00000000E+00 -2.39908892E-02
  0.00000000E+00  0.00000000E+00 -1.07854318E-01  0.00000000E+00  0.00000000E+00
 -1.23699457E-01  0.00000000E+00  0.00000000E+00 -5.80042730E-01  0.00000000E+00
  0.00000000E+00  0.00000000E+00  0.00000000E+00  0.00000000E+00  0.00000000E+00
  0.00000000E+00  0.00000000E+00  0.00000000E+00  0.00000000E+00  0.00000000E+00
  0.00000000E+00  0.00000000E+00  0.00000000E+00  0.00000000E+00  1.43494307E+00
  0.00000000E+00  0.00000000E+00  7.11852022E-02  0.00000000E+00  0.00000000E+00
 -2.45127630E-02  0.00000000E+00  0.00000000E+00 -1.10092026E-01  0.00000000E+00
  0.00000000E+00 -1.14599231E-01  0.00000000E+00  0.00000000E+00 -6.39373276E-01
  0.00000000E+00  0.00000000E+00  0.00000000E+00  0.00000000E+00  0.00000000E+00
  0.00000000E+00  0.00000000E+00  0.00000000E+00  0.00000000E+00  0.00000000E+00
  0.00000000E+00  0.00000000E+00  1.43494307E+00  0.00000000E+00  0.00000000E+00
  7.11852022E-02  0.00000000E+00  0.00000000E+00 -2.45127630E-02  0.00000000E+00
  0.00000000E+00 -1.10092026E-01  0.00000000E+00  0.00000000E+00 -1.14599231E-01
  0.00000000E+00  0.00000000E+00 -6.39373276E-01  0.00000000E+00  0.00000000E+00
  0.00000000E+00  0.00000000E+00  0.00000000E+00  0.00000000E+00  0.00000000E+00
  0.00000000E+00  0.00000000E+00  0.00000000E+00  0.00000000E+00  0.00000000E+00
  0.00000000E+00  0.00000000E+00  0.00000000E+00 -1.32787369E+00  0.00000000E+00
  0.00000000E+00  1.39840312E-01  0.00000000E+00  0.00000000E+00 -6.37752073E-02
  0.00000000E+00  0.00000000E+00 -1.06634386E-01  0.00000000E+00  0.00000000E+00
 -1.02808544E+00  0.00000000E+00  0.00000000E+00  2.24372518E+00  0.00000000E+00
  0.00000000E+00  0.00000000E+00  0.00000000E+00  0.00000000E+00  0.00000000E+00
  0.00000000E+00  0.00000000E+00  0.00000000E+00  0.00000000E+00  0.00000000E+00
  0.00000000E+00  0.00000000E+00  0.00000000E+00  0.00000000E+00 -1.29713758E+00
  0.00000000E+00  0.00000000E+00  1.42164571E-01  0.00000000E+00  0.00000000E+00
 -6.58301123E-02  0.00000000E+00  0.00000000E+00 -1.02250842E-01  0.00000000E+00
  0.00000000E+00 -1.05587910E+00  0.00000000E+00  0.00000000E+00  2.23005422E+00
  0.00000000E+00  0.00000000E+00  0.00000000E+00  0.00000000E+00  0.00000000E+00
  0.00000000E+00  0.00000000E+00  0.00000000E+00  0.00000000E+00  0.00000000E+00
  0.00000000E+00  0.00000000E+00 -1.29713758E+00  0.00000000E+00  0.00000000E+00
  1.42164571E-01  0.00000000E+00  0.00000000E+00 -6.58301123E-02  0.00000000E+00
  0.00000000E+00 -1.02250842E-01  0.00000000E+00  0.00000000E+00 -1.05587910E+00
  0.00000000E+00  0.00000000E+00  2.23005422E+00  0.00000000E+00  0.00000000E+00
  0.00000000E+00  0.00000000E+00  0.00000000E+00  0.00000000E+00  0.00000000E+00
 -1.86318281E-02 -5.05591514E-02  7.72745553E-02  3.60373485E-01 -1.31706250E+00
  1.46311381E+00 -5.34941201E-01  0.00000000E+00  0.00000000E+00  0.00000000E+00
  0.00000000E+00  0.00000000E+00  0.00000000E+00  0.00000000E+00  0.00000000E+00
  0.00000000E+00  0.00000000E+00  0.00000000E+00  0.00000000E+00  0.00000000E+00
  0.00000000E+00  0.00000000E+00  0.00000000E+00  0.00000000E+00  0.00000000E+00
  4.16915710E-01  0.00000000E+00  0.00000000E+00  7.22119192E-01  0.00000000E+00
 -3.07747084E-02 -8.44425830E-02  1.37922608E-01  5.62694529E-01 -2.03015046E+00
  2.16371531E+00 -7.79390124E-01  0.00000000E+00  0.00000000E+00  0.00000000E+00
  0.00000000E+00  0.00000000E+00  0.00000000E+00  0.00000000E+00  0.00000000E+00
  0.00000000E+00  0.00000000E+00  0.00000000E+00  0.00000000E+00  0.00000000E+00
  0.00000000E+00  0.00000000E+00  0.00000000E+00  0.00000000E+00  0.00000000E+00
 -2.75500256E-01  0.00000000E+00  0.00000000E+00 -4.77180441E-01  0.00000000E+00
  0.00000000E+00  0.00000000E+00  0.00000000E+00  0.00000000E+00  0.00000000E+00
  0.00000000E+00  0.00000000E+00  0.00000000E+00  0.00000000E+00  0.00000000E+00
  0.00000000E+00  0.00000000E+00  0.00000000E+00  0.00000000E+00  0.00000000E+00
  0.00000000E+00  0.00000000E+00  0.00000000E+00  0.00000000E+00  0.00000000E+00
  0.00000000E+00  0.00000000E+00  0.00000000E+00  0.00000000E+00  0.00000000E+00
  0.00000000E+00  0.00000000E+00  0.00000000E+00  0.00000000E+00  1.00000000E+00
  0.00000000E+00  0.00000000E+00  0.00000000E+00  0.00000000E+00  0.00000000E+00
  0.00000000E+00  0.00000000E+00  0.00000000E+00  0.00000000E+00  0.00000000E+00
  0.00000000E+00  0.00000000E+00  0.00000000E+00  0.00000000E+00  0.00000000E+00
  0.00000000E+00  0.00000000E+00  0.00000000E+00  0.00000000E+00  0.00000000E+00
  0.00000000E+00  0.00000000E+00  0.00000000E+00  0.00000000E+00  0.00000000E+00
  0.00000000E+00  0.00000000E+00  1.00000000E+00  0.00000000E+00  0.00000000E+00
  0.00000000E+00  0.00000000E+00  0.00000000E+00  0.00000000E+00  0.00000000E+00
  0.00000000E+00  0.00000000E+00  0.00000000E+00  0.00000000E+00  0.00000000E+00
  0.00000000E+00  0.00000000E+00  0.00000000E+00  0.00000000E+00  0.00000000E+00
  0.00000000E+00  0.00000000E+00  0.00000000E+00  0.00000000E+00  0.00000000E+00
  0.00000000E+00  0.00000000E+00  0.00000000E+00  0.00000000E+00  0.00000000E+00
  0.00000000E+00  1.00000000E+00  0.00000000E+00  0.00000000E+00  0.00000000E+00
  1.28481476E-15  3.56015900E-15 -6.24548611E-15 -2.30934194E-14  8.42871903E-14
 -8.83966195E-14  3.18211732E-14  0.00000000E+00  0.00000000E+00  0.00000000E+00
  0.00000000E+00  0.00000000E+00  0.00000000E+00  0.00000000E+00  0.00000000E+00
  0.00000000E+00  0.00000000E+00  0.00000000E+00  0.00000000E+00  0.00000000E+00
  0.00000000E+00  0.00000000E+00  0.00000000E+00  0.00000000E+00  0.00000000E+00
  8.66025404E-01  0.00000000E+00  0.00000000E+00 -5.00000000E-01  0.00000000E+00
  0.00000000E+00  0.00000000E+00  0.00000000E+00  0.00000000E+00  0.00000000E+00
  0.00000000E+00  0.00000000E+00  0.00000000E+00  5.43485020E-01  0.00000000E+00
  0.00000000E+00  5.07020724E-01  0.00000000E+00  0.00000000E+00 -1.25385381E-01
  0.00000000E+00  0.00000000E+00 -1.96894217E+00  0.00000000E+00  0.00000000E+00
  2.10170180E+00  0.00000000E+00  0.00000000E+00 -1.22545829E+00  0.00000000E+00
  0.00000000E+00  0.00000000E+00  0.00000000E+00  0.00000000E+00  0.00000000E+00
  0.00000000E+00  0.00000000E+00  0.00000000E+00  0.00000000E+00  0.00000000E+00
  0.00000000E+00  0.00000000E+00  5.36646437E-01  0.00000000E+00  0.00000000E+00
  5.07298993E-01  0.00000000E+00  0.00000000E+00 -1.25597154E-01  0.00000000E+00
  0.00000000E+00 -1.96958731E+00  0.00000000E+00  0.00000000E+00  2.09561859E+00
  0.00000000E+00  0.00000000E+00 -1.21263458E+00  0.00000000E+00  0.00000000E+00
  0.00000000E+00  0.00000000E+00  0.00000000E+00  0.00000000E+00  0.00000000E+00
  0.00000000E+00  0.00000000E+00  0.00000000E+00  0.00000000E+00  0.00000000E+00
  0.00000000E+00  0.00000000E+00  0.00000000E+00  0.00000000E+00  5.36646437E-01
  0.00000000E+00  0.00000000E+00  5.07298993E-01  0.00000000E+00  0.00000000E+00
 -1.25597154E-01  0.00000000E+00  0.00000000E+00 -1.96958731E+00  0.00000000E+00
  0.00000000E+00  2.09561859E+00  0.00000000E+00  0.00000000E+00 -1.21263458E+00
  0.00000000E+00  0.00000000E+00  0.00000000E+00  0.00000000E+00  0.00000000E+00
  1.18295468E-01  4.80569624E-01 -2.64083013E+00  3.07454228E+00 -1.68201696E+00
  9.09305031E-01 -2.49332301E-01  0.00000000E+00  0.00000000E+00  0.00000000E+00
  0.00000000E+00  0.00000000E+00  0.00000000E+00  0.00000000E+00  0.00000000E+00
  0.00000000E+00  0.00000000E+00  0.00000000E+00  0.00000000E+00  0.00000000E+00
  0.00000000E+00  0.00000000E+00  0.00000000E+00  0.00000000E+00  0.00000000E+00
 -7.81777368E-04  0.00000000E+00  0.00000000E+00 -1.35407812E-03  0.00000000E+00
  0.00000000E+00  0.00000000E+00  0.00000000E+00  0.00000000E+00  0.00000000E+00
  0.00000000E+00  0.00000000E+00  0.00000000E+00 -2.53548320E-01  0.00000000E+00
  0.00000000E+00 -2.21797465E+00  0.00000000E+00  0.00000000E+00 -1.76453904E+00
  0.00000000E+00  0.00000000E+00  2.40338814E+00  0.00000000E+00  0.00000000E+00
 -1.23495669E+00  0.00000000E+00  0.00000000E+00  5.72588395E-01  0.00000000E+00
  0.00000000E+00  0.00000000E+00  0.00000000E+00  0.00000000E+00  0.00000000E+00
  0.00000000E+00  0.00000000E+00  0.00000000E+00  0.00000000E+00  0.00000000E+00
  0.00000000E+00  0.00000000E+00 -2.53266597E-01  0.00000000E+00  0.00000000E+00
 -2.21816813E+00  0.00000000E+00  0.00000000E+00 -1.76446523E+00  0.00000000E+00
  0.00000000E+00  2.40353454E+00  0.00000000E+00  0.00000000E+00 -1.23441860E+00
  0.00000000E+00  0.00000000E+00  5.72041843E-01  0.00000000E+00  0.00000000E+00
  0.00000000E+00  0.00000000E+00  0.00000000E+00  0.00000000E+00  0.00000000E+00
  0.00000000E+00  0.00000000E+00  0.00000000E+00  0.00000000E+00  0.00000000E+00
  0.00000000E+00  0.00000000E+00  0.00000000E+00  0.00000000E+00 -2.53266597E-01
  0.00000000E+00  0.00000000E+00 -2.21816813E+00  0.00000000E+00  0.00000000E+00
 -1.76446523E+00  0.00000000E+00  0.00000000E+00  2.40353454E+00  0.00000000E+00
  0.00000000E+00 -1.23441860E+00  0.00000000E+00  0.00000000E+00  5.72041843E-01
  0.00000000E+00  0.00000000E+00  0.00000000E+00  0.00000000E+00  0.00000000E+00
 -1.54160262E+00  1.91463388E+00 -1.43606412E+00  9.57443922E-01 -3.79029908E-01
  1.99336955E-01 -5.54307617E-02  0.00000000E+00  0.00000000E+00  0.00000000E+00
  0.00000000E+00  0.00000000E+00  0.00000000E+00  0.00000000E+00  0.00000000E+00
  0.00000000E+00  0.00000000E+00  0.00000000E+00  0.00000000E+00  0.00000000E+00
  0.00000000E+00  0.00000000E+00  0.00000000E+00  0.00000000E+00  0.00000000E+00
 -4.61132352E-06  0.00000000E+00  0.00000000E+00 -7.98704663E-06  0.00000000E+00
Beta MO coefficients                       R   N=         900
  4.11793911E-01  6.53978847E-01  1.46916687E-02 -3.60988902E-03  1.18811413E-03
 -6.17932725E-04  1.70707417E-04  0.00000000E+00  0.00000000E+00  0.00000000E+00
  0.00000000E+00  0.00000000E+00  0.00000000E+00  0.00000000E+00  0.00000000E+00
  0.00000000E+00  0.00000000E+00  0.00000000E+00  0.00000000E+00  0.00000000E+00
  0.00000000E+00  0.00000000E+00  0.00000000E+00  0.00000000E+00  0.00000000E+00
 -2.57921531E-06  0.00000000E+00  0.00000000E+00 -4.46733197E-06  0.00000000E+00
 -1.21828954E-01 -3.27764993E-01  4.99895818E-01  6.10917528E-01  5.24357681E-02
 -1.55453176E-02  3.87478011E-03  0.00000000E+00  0.00000000E+00  0.00000000E+00
  0.00000000E+00  0.00000000E+00  0.00000000E+00  0.00000000E+00  0.00000000E+00
  0.00000000E+00  0.00000000E+00  0.00000000E+00  0.00000000E+00  0.00000000E+00
  0.00000000E+00  0.00000000E+00  0.00000000E+00  0.00000000E+00  0.00000000E+00
 -2.93559952E-05  0.00000000E+00  0.00000000E+00 -5.08460753E-05  0.00000000E+00
  0.00000000E+00  0.00000000E+00  0.00000000E+00  0.00000000E+00  0.00000000E+00
  0.00000000E+00  0.00000000E+00  0.00000000E+00 -3.79813668E-04  0.00000000E+00
  0.00000000E+00  8.02932210E-01  0.00000000E+00  0.00000000E+00 -2.74207555E-01
  0.00000000E+00  0.00000000E+00  5.47924592E-02  0.00000000E+00  0.00000000E+00
 -2.68569999E-03  0.00000000E+00  0.00000000E+00  9.41436990E-04  0.00000000E+00
  0.00000000E+00  0.00000000E+00  0.00000000E+00  0.00000000E+00  0.00000000E+00
  0.00000000E+00  0.00000000E+00  0.00000000E+00  0.00000000E+00  0.00000000E+00
  0.00000000E+00  0.00000000E+00  0.00000000E+00  0.00000000E+00 -9.07055078E-05
  0.00000000E+00  0.00000000E+00  8.03473986E-01  0.00000000E+00  0.00000000E+00
 -2.74593063E-01  0.00000000E+00  0.00000000E+00  5.27392826E-02  0.00000000E+00
  0.00000000E+00 -1.47529614E-03  0.00000000E+00  0.00000000E+00  3.14783939E-04
  0.00000000E+00  0.00000000E+00  0.00000000E+00  0.00000000E+00  0.00000000E+00
  0.00000000E+00  0.00000000E+00  0.00000000E+00  0.00000000E+00  0.00000000E+00
  0.00000000E+00  0.00000000E+00 -9.07055078E-05  0.00000000E+00  0.00000000E+00
  8.03473986E-01  0.00000000E+00  0.00000000E+00 -2.74593063E-01  0.00000000E+00
  0.00000000E+00  5.27392826E-02  0.00000000E+00  0.00000000E+00 -1.47529614E-03
  0.00000000E+00  0.00000000E+00  3.14783939E-04  0.00000000E+00  0.00000000E+00
  0.00000000E+00  0.00000000E+00  0.00000000E+00  0.00000000E+00  0.00000000E+00
  3.86715315E-02  1.10867844E-01 -2.24530603E-01 -4.21934585E-01  6.57707483E-01
  5.63865692E-01 -6.57440516E-03  0.00000000E+00  0.00000000E+00  0.00000000E+00
  0.00000000E+00  0.00000000E+00  0.00000000E+00  0.00000000E+00  0.00000000E+00
  0.00000000E+00  0.00000000E+00  0.00000000E+00  0.00000000E+00  0.00000000E+00
  0.00000000E+00  0.00000000E+00  0.00000000E+00  0.00000000E+00  0.00000000E+00
  6.32629672E-03  0.00000000E+00  0.00000000E+00  1.09574673E-02  0.00000000E+00
  0.00000000E+00  0.00000000E+00  0.00000000E+00  0.00000000E+00  0.00000000E+00
  0.00000000E+00  0.00000000E+00  0.00000000E+00  0.00000000E+00 -2.67734551E-02
  0.00000000E+00  0.00000000E+00 -2.29426196E-01  0.00000000E+00  0.00000000E+00
  8.67630746E-02  0.00000000E+00  0.00000000E+00  2.62169601E-01  0.00000000E+00
  0.00000000E+00  5.86414569E-01  0.00000000E+00  0.00000000E+00  3.55707944E-01
  0.00000000E+00  0.00000000E+00  0.00000000E+00  0.00000000E+00  0.00000000E+00
  0.00000000E+00  0.00000000E+00  0.00000000E+00  0.00000000E+00  0.00000000E+00
  0.00000000E+00  0.00000000E+00 -2.67734551E-02  0.00000000E+00  0.00000000E+00
 -2.29426196E-01  0.00000000E+00  0.00000000E+00  8.67630746E-02  0.00000000E+00
  0.00000000E+00  2.62169601E-01  0.00000000E+00  0.00000000E+00  5.86414569E-01
  0.00000000E+00  0.00000000E+00  3.55707944E-01  0.00000000E+00  0.00000000E+00