fubar                                                                   
SP        UPBE1PBE                                                    6-311+G(d,p)        
Number of atoms                            I                1
Info1-9                                    I   N=           9
          11          10           0           0           0         110
           1          18       -1302
Full Title                                 C   N=           1
fubar       
Route                                      C   N=           3
#PBE1PBE/6-311+G(d,p) scf=tight     
Charge                                     I                0
Multiplicity                               I                2
Number of electrons                        I                9
Number of alpha electrons                  I                5
Number of beta electrons                   I                4
Number of basis functions                  I               22
Number of independent functions            I               22
Number of point charges in /Mol/           I                0
Number of translation vectors              I                0
Atomic numbers                             I   N=           1
           9
Nuclear charges                            R   N=           1
  9.00000000E+00
Current cartesian coordinates              R   N=           3
  0.00000000E+00  0.00000000E+00  0.00000000E+00
Number of symbols in /Mol/                 I                0
Int Atom Types                             I   N=           1
           0
Force Field                                I                0
Atom Types                                 C   N=           1
            
MM charges                                 R   N=           1
  0.00000000E+00
Integer atomic weights                     I   N=           1
          19
Real atomic weights                        R   N=           1
  1.89984032E+01
Atom fragment info                         I   N=           1
           0
Atom residue num                           I   N=           1
           0
Nuclear spins                              I   N=           1
           1
Nuclear ZEff                               R   N=           1
 -6.75000000E+00
Nuclear ZNuc                               R   N=           1
  9.00000000E+00
Nuclear QMom                               R   N=           1
  0.00000000E+00
Nuclear GFac                               R   N=           1
  2.62886700E+00
MicOpt                                     I   N=           1
          -1
Number of residues                         I                0
Number of secondary structures             I                0
SymInf integers                            I   N=          26
           1           8           1           1           1           1
          -1          -1          -1           1          -1          -1
          -1           1          -1          -1          -1          -1
           1           1           1          -1           1           1
           1          -1
RotTr to input orientation                 R   N=          12
  0.00000000E+00  0.00000000E+00 -1.00000000E+00  0.00000000E+00  1.00000000E+00
  0.00000000E+00  1.00000000E+00  0.00000000E+00  0.00000000E+00  0.00000000E+00
  0.00000000E+00  0.00000000E+00
Number of contracted shells                I                6
Number of primitive shells                 I               13
Pure/Cartesian d shells                    I                0
Pure/Cartesian f shells                    I                0
Highest angular momentum                   I                2
Largest degree of contraction              I                6
Shell types                                I   N=           6
           0          -1          -1          -1          -1          -2
Number of primitives per shell             I   N=           6
           6           3           1           1           1           1
Shell to atom map                          I   N=           6
           1           1           1           1           1           1
Primitive exponents                        R   N=          13
  1.14271000E+04  1.72235000E+03  3.95746000E+02  1.15139000E+02  3.36026000E+01
  4.91901000E+00  5.54441000E+01  1.26323000E+01  3.71756000E+00  1.16545000E+00
  3.21892000E-01  1.07600000E-01  1.75000000E+00
Contraction coefficients                   R   N=          13
  1.80093016E-03  1.37419012E-02  6.81334059E-02  2.33325020E-01  5.89086051E-01
  2.99505026E-01  1.14536016E-01  9.20512125E-01 -3.37804046E-03  1.00000000E+00
  1.00000000E+00  1.00000000E+00  1.00000000E+00
P(S=P) Contraction coefficients            R   N=          13
  0.00000000E+00  0.00000000E+00  0.00000000E+00  0.00000000E+00  0.00000000E+00
  0.00000000E+00  3.54608874E-02  2.37450915E-01  8.20457708E-01  1.00000000E+00
  1.00000000E+00  1.00000000E+00  0.00000000E+00
Coordinates of each shell                  R   N=          18
  0.00000000E+00  0.00000000E+00  0.00000000E+00  0.00000000E+00  0.00000000E+00
  0.00000000E+00  0.00000000E+00  0.00000000E+00  0.00000000E+00  0.00000000E+00
  0.00000000E+00  0.00000000E+00  0.00000000E+00  0.00000000E+00  0.00000000E+00
  0.00000000E+00  0.00000000E+00  0.00000000E+00
Num ILSW                                   I              100
ILSW                                       I   N=         100
           1           0           0           0           2           0
           0           0           0           0        1009          -1
           5           0           0           0           0           0
           0           0           0           0           0           0
           1           0           0           0           0           0
           0           0      100000           0          -1           0
           0           0           0           0           0           0
           0           0           0           1           0           0
           0 -2000000000           1           0           0           0
           0           1           4          52           0           0
           0           0          13           0           0           0
           0           0           0           1           0           1
           0           0           0           0           0           0
           0           0           0           0           0           0
           0           0           0           0           0           0
           0           0           0           0           0           0
           0           0           0           0
Num RLSW                                   I               52
RLSW                                       R   N=          52
  7.50000000E-01  7.50000000E-01  1.00000000E+00  1.00000000E+00  2.50000000E-01
  0.00000000E+00  0.00000000E+00  1.00000000E+00  0.00000000E+00  0.00000000E+00
  0.00000000E+00  0.00000000E+00  1.00000000E+00  0.00000000E+00  0.00000000E+00
  0.00000000E+00  0.00000000E+00  1.00000000E+00  0.00000000E+00  0.00000000E+00
  0.00000000E+00  0.00000000E+00  1.00000000E+00  0.00000000E+00  0.00000000E+00
  0.00000000E+00  0.00000000E+00  1.00000000E+00  0.00000000E+00  0.00000000E+00
  0.00000000E+00  0.00000000E+00  1.00000000E+00  0.00000000E+00  0.00000000E+00
  0.00000000E+00  0.00000000E+00  0.00000000E+00  1.00000000E+00  1.00000000E+00
  0.00000000E+00  1.00000000E+00  0.00000000E+00  0.00000000E+00  0.00000000E+00
  0.00000000E+00  0.00000000E+00  0.00000000E+00  0.00000000E+00  0.00000000E+00
  0.00000000E+00  0.00000000E+00
MxBond                                     I                1
NBond                                      I   N=           1
           0
IBond                                      I   N=           1
           0
RBond                                      R   N=           1
  0.00000000E+00
Virial Ratio                               R      2.001802113465730E+00
SCF Energy                                 R     -9.966601200714594E+01
Total Energy                               R     -9.966601200714594E+01
S**2                                       R      7.513423317448176E-01
S**2 after annihilation                    R      7.500011173334249E-01
RMS Density                                R      9.882678907701164E-09
Job Status                                 I                1
Nuclear derivative order                   I                0
External E-field                           R   N=          35
  0.00000000E+00  0.00000000E+00  0.00000000E+00  0.00000000E+00  0.00000000E+00
  0.00000000E+00  0.00000000E+00  0.00000000E+00  0.00000000E+00  0.00000000E+00
  0.00000000E+00  0.00000000E+00  0.00000000E+00  0.00000000E+00  0.00000000E+00
  0.00000000E+00  0.00000000E+00  0.00000000E+00  0.00000000E+00  0.00000000E+00
  0.00000000E+00  0.00000000E+00  0.00000000E+00  0.00000000E+00  0.00000000E+00
  0.00000000E+00  0.00000000E+00  0.00000000E+00  0.00000000E+00  0.00000000E+00
  0.00000000E+00  0.00000000E+00  0.00000000E+00  0.00000000E+00  0.00000000E+00
IOpCl                                      I                1
IROHF                                      I                0
Alpha Orbital Energies                     R   N=          22
 -2.48724402E+01 -1.26978528E+00 -5.89115320E-01 -4.94857230E-01 -4.94857230E-01
  1.30277932E-01  1.94975046E-01  2.08607912E-01  2.08607912E-01  1.19485151E+00
  1.24277194E+00  1.24277194E+00  1.50728060E+00  3.64632624E+00  3.66990301E+00
  3.66990301E+00  3.74365037E+00  3.74365037E+00  6.13364213E+00  6.21716393E+00
  6.21716393E+00  6.67167634E+01
Beta Orbital Energies                      R   N=          22
 -2.48392973E+01 -1.16871723E+00 -4.61587727E-01 -4.61587727E-01 -2.50015269E-01
  1.41059887E-01  2.11923457E-01  2.11923457E-01  2.27266593E-01  1.25737790E+00
  1.25737790E+00  1.28973848E+00  1.55095924E+00  3.75980420E+00  3.75980420E+00
  3.77500692E+00  3.77500692E+00  3.80182922E+00  6.24333293E+00  6.24333293E+00
  6.28067342E+00  6.67463233E+01
Alpha MO coefficients                      R   N=         484
  5.47668919E-01  4.72024824E-01  0.00000000E+00  0.00000000E+00  0.00000000E+00
  1.13478208E-02  0.00000000E+00  0.00000000E+00  0.00000000E+00 -4.82751795E-03
  0.00000000E+00  0.00000000E+00  0.00000000E+00  1.83649471E-03  0.00000000E+00
  0.00000000E+00  0.00000000E+00 -1.62864854E-04  0.00000000E+00  0.00000000E+00
 -2.82090202E-04  0.00000000E+00 -1.31702940E-01 -2.15357018E-01  0.00000000E+00
  0.00000000E+00  0.00000000E+00  6.59101454E-01  0.00000000E+00  0.00000000E+00
  0.00000000E+00  4.74831389E-01  0.00000000E+00  0.00000000E+00  0.00000000E+00
 -1.16274375E-02  0.00000000E+00  0.00000000E+00  0.00000000E+00 -7.65561614E-03
  0.00000000E+00  0.00000000E+00 -1.32599161E-02  0.00000000E+00  0.00000000E+00
  0.00000000E+00  0.00000000E+00  3.35543796E-01  0.00000000E+00  0.00000000E+00
  0.00000000E+00  4.95508058E-01  0.00000000E+00  0.00000000E+00  0.00000000E+00
  3.72890099E-01  0.00000000E+00  0.00000000E+00  0.00000000E+00  3.16402380E-02
  0.00000000E+00  0.00000000E+00  0.00000000E+00  0.00000000E+00  0.00000000E+00
  0.00000000E+00  0.00000000E+00  0.00000000E+00  0.00000000E+00  0.00000000E+00
  3.27587765E-01  0.00000000E+00  0.00000000E+00  0.00000000E+00  4.77349331E-01
  0.00000000E+00  0.00000000E+00  0.00000000E+00  3.88943919E-01  0.00000000E+00
  0.00000000E+00  0.00000000E+00  5.45702783E-02  0.00000000E+00  0.00000000E+00
  0.00000000E+00  0.00000000E+00  0.00000000E+00  0.00000000E+00  0.00000000E+00
  3.27587765E-01  0.00000000E+00  0.00000000E+00  0.00000000E+00  4.77349331E-01
  0.00000000E+00  0.00000000E+00  0.00000000E+00  3.88943919E-01  0.00000000E+00
  0.00000000E+00  0.00000000E+00  5.45702783E-02  0.00000000E+00  0.00000000E+00
  0.00000000E+00  0.00000000E+00  0.00000000E+00  0.00000000E+00  0.00000000E+00
  3.86007237E-02  6.26875475E-02  0.00000000E+00  0.00000000E+00  0.00000000E+00
 -1.66268129E-01  0.00000000E+00  0.00000000E+00  0.00000000E+00 -9.09448099E-01
  0.00000000E+00  0.00000000E+00  0.00000000E+00  1.55987471E+00  0.00000000E+00
  0.00000000E+00  0.00000000E+00  2.10109217E-03  0.00000000E+00  0.00000000E+00
  3.63919840E-03  0.00000000E+00  0.00000000E+00  0.00000000E+00  0.00000000E+00
 -1.19477275E-01  0.00000000E+00  0.00000000E+00  0.00000000E+00 -1.26087978E-01
  0.00000000E+00  0.00000000E+00  0.00000000E+00 -4.14464422E-01  0.00000000E+00
  0.00000000E+00  0.00000000E+00  1.22130243E+00  0.00000000E+00  0.00000000E+00
  0.00000000E+00  0.00000000E+00  0.00000000E+00  0.00000000E+00  0.00000000E+00
  0.00000000E+00  0.00000000E+00  0.00000000E+00 -1.25259485E-01  0.00000000E+00
  0.00000000E+00  0.00000000E+00 -1.28680287E-01  0.00000000E+00  0.00000000E+00
  0.00000000E+00 -4.52420921E-01  0.00000000E+00  0.00000000E+00  0.00000000E+00
  1.23316692E+00  0.00000000E+00  0.00000000E+00  0.00000000E+00  0.00000000E+00
  0.00000000E+00  0.00000000E+00  0.00000000E+00 -1.25259485E-01  0.00000000E+00
  0.00000000E+00  0.00000000E+00 -1.28680287E-01  0.00000000E+00  0.00000000E+00
  0.00000000E+00 -4.52420921E-01  0.00000000E+00  0.00000000E+00  0.00000000E+00
  1.23316692E+00  0.00000000E+00  0.00000000E+00  0.00000000E+00  0.00000000E+00
  0.00000000E+00  0.00000000E+00  0.00000000E+00  0.00000000E+00  0.00000000E+00
  0.00000000E+00 -2.60648217E-01  0.00000000E+00  0.00000000E+00  0.00000000E+00
 -7.75607057E-01  0.00000000E+00  0.00000000E+00  0.00000000E+00  1.65806195E+00
  0.00000000E+00  0.00000000E+00  0.00000000E+00 -8.36767303E-01  0.00000000E+00
  0.00000000E+00  0.00000000E+00  0.00000000E+00  0.00000000E+00  0.00000000E+00
  0.00000000E+00  0.00000000E+00 -2.63876706E-01  0.00000000E+00  0.00000000E+00
  0.00000000E+00 -7.91622869E-01  0.00000000E+00  0.00000000E+00  0.00000000E+00
  1.64749551E+00  0.00000000E+00  0.00000000E+00  0.00000000E+00 -8.19056219E-01
  0.00000000E+00  0.00000000E+00  0.00000000E+00  0.00000000E+00  0.00000000E+00
  0.00000000E+00  0.00000000E+00  0.00000000E+00  0.00000000E+00  0.00000000E+00
  0.00000000E+00 -2.63876706E-01  0.00000000E+00  0.00000000E+00  0.00000000E+00
 -7.91622869E-01  0.00000000E+00  0.00000000E+00  0.00000000E+00  1.64749551E+00
  0.00000000E+00  0.00000000E+00  0.00000000E+00 -8.19056219E-01  0.00000000E+00
  0.00000000E+00  0.00000000E+00  0.00000000E+00  0.00000000E+00  1.21573746E-01
  2.40341768E-01  0.00000000E+00  0.00000000E+00  0.00000000E+00 -1.75485490E+00
  0.00000000E+00  0.00000000E+00  0.00000000E+00  2.50165720E+00  0.00000000E+00
  0.00000000E+00  0.00000000E+00 -1.15658265E+00  0.00000000E+00  0.00000000E+00
  0.00000000E+00  4.12678501E-03  0.00000000E+00  0.00000000E+00  7.14780131E-03
  0.00000000E+00 -3.41257608E-03 -4.97149427E-03  0.00000000E+00  0.00000000E+00
  0.00000000E+00  2.52474624E-02  0.00000000E+00  0.00000000E+00  0.00000000E+00
 -9.52460487E-03  0.00000000E+00  0.00000000E+00  0.00000000E+00  2.80005801E-03
  0.00000000E+00  0.00000000E+00  0.00000000E+00  4.99919906E-01  0.00000000E+00
  0.00000000E+00  8.65886677E-01  0.00000000E+00  0.00000000E+00  0.00000000E+00
  0.00000000E+00  0.00000000E+00  0.00000000E+00  0.00000000E+00  0.00000000E+00
  0.00000000E+00  0.00000000E+00  0.00000000E+00  0.00000000E+00  0.00000000E+00
  0.00000000E+00  0.00000000E+00  0.00000000E+00  0.00000000E+00  0.00000000E+00
  0.00000000E+00  0.00000000E+00  0.00000000E+00  0.00000000E+00  1.00000000E+00
  0.00000000E+00  0.00000000E+00  0.00000000E+00  0.00000000E+00  0.00000000E+00
  0.00000000E+00  0.00000000E+00  0.00000000E+00  0.00000000E+00  0.00000000E+00
  0.00000000E+00  0.00000000E+00  0.00000000E+00  0.00000000E+00  0.00000000E+00
  0.00000000E+00  0.00000000E+00  0.00000000E+00  0.00000000E+00  1.00000000E+00
  0.00000000E+00  0.00000000E+00  0.00000000E+00  0.00000000E+00  0.00000000E+00
  0.00000000E+00  0.00000000E+00  0.00000000E+00  0.00000000E+00  0.00000000E+00
  0.00000000E+00  0.00000000E+00  0.00000000E+00  0.00000000E+00  0.00000000E+00
  0.00000000E+00  0.00000000E+00  0.00000000E+00  0.00000000E+00  0.00000000E+00
  1.00000000E+00  0.00000000E+00  0.00000000E+00  0.00000000E+00  1.26611036E-16
  2.30056732E-16  0.00000000E+00  0.00000000E+00  0.00000000E+00 -1.89303183E-15
  0.00000000E+00  0.00000000E+00  0.00000000E+00  2.63413061E-15  0.00000000E+00
  0.00000000E+00  0.00000000E+00 -1.53584774E-15  0.00000000E+00  0.00000000E+00
  0.00000000E+00  8.66025404E-01  0.00000000E+00  0.00000000E+00 -5.00000000E-01
  0.00000000E+00  0.00000000E+00  0.00000000E+00  0.00000000E+00 -1.25701959E+00
  0.00000000E+00  0.00000000E+00  0.00000000E+00  1.49927069E+00  0.00000000E+00
  0.00000000E+00  0.00000000E+00 -8.46745422E-01  0.00000000E+00  0.00000000E+00
  0.00000000E+00  3.16736853E-01  0.00000000E+00  0.00000000E+00  0.00000000E+00
  0.00000000E+00  0.00000000E+00  0.00000000E+00  0.00000000E+00  0.00000000E+00
 -1.25788139E+00  0.00000000E+00  0.00000000E+00  0.00000000E+00  1.49656859E+00
  0.00000000E+00  0.00000000E+00  0.00000000E+00 -8.40697021E-01  0.00000000E+00
  0.00000000E+00  0.00000000E+00  3.13928075E-01  0.00000000E+00  0.00000000E+00
  0.00000000E+00  0.00000000E+00  0.00000000E+00  0.00000000E+00  0.00000000E+00
  0.00000000E+00  0.00000000E+00  0.00000000E+00  0.00000000E+00 -1.25788139E+00
  0.00000000E+00  0.00000000E+00  0.00000000E+00  1.49656859E+00  0.00000000E+00
  0.00000000E+00  0.00000000E+00 -8.40697021E-01  0.00000000E+00  0.00000000E+00
  0.00000000E+00  3.13928075E-01  0.00000000E+00  0.00000000E+00  0.00000000E+00
  0.00000000E+00  0.00000000E+00 -2.32572744E+00  2.39278148E+00  0.00000000E+00
  0.00000000E+00  0.00000000E+00 -1.96197115E-01  0.00000000E+00  0.00000000E+00
  0.00000000E+00  1.94677090E-01  0.00000000E+00  0.00000000E+00  0.00000000E+00
 -7.98278065E-02  0.00000000E+00  0.00000000E+00  0.00000000E+00 -8.77708981E-05
  0.00000000E+00  0.00000000E+00 -1.52023655E-04  0.00000000E+00
Beta MO coefficients                       R   N=         484
  5.48358799E-01  4.71845908E-01  0.00000000E+00  0.00000000E+00  0.00000000E+00
  9.80956642E-03  0.00000000E+00  0.00000000E+00  0.00000000E+00 -4.09835038E-03
  0.00000000E+00  0.00000000E+00  0.00000000E+00  1.54510643E-03  0.00000000E+00
  0.00000000E+00  0.00000000E+00  1.91283019E-04  0.00000000E+00  0.00000000E+00
  3.31311907E-04  0.00000000E+00 -1.29708682E-01 -2.11269414E-01  0.00000000E+00
  0.00000000E+00  0.00000000E+00  6.38286622E-01  0.00000000E+00  0.00000000E+00
  0.00000000E+00  4.89394192E-01  0.00000000E+00  0.00000000E+00  0.00000000E+00
 -3.43351377E-03  0.00000000E+00  0.00000000E+00  0.00000000E+00  3.79716480E-03
  0.00000000E+00  0.00000000E+00  6.57688236E-03  0.00000000E+00  0.00000000E+00
  0.00000000E+00  0.00000000E+00  0.00000000E+00  3.23185808E-01  0.00000000E+00
  0.00000000E+00  0.00000000E+00  4.69610245E-01  0.00000000E+00  0.00000000E+00
  0.00000000E+00  3.95466760E-01  0.00000000E+00  0.00000000E+00  0.00000000E+00
  6.55591831E-02  0.00000000E+00  0.00000000E+00  0.00000000E+00  0.00000000E+00
  0.00000000E+00  0.00000000E+00  0.00000000E+00  3.23185808E-01  0.00000000E+00
  0.00000000E+00  0.00000000E+00  4.69610245E-01  0.00000000E+00  0.00000000E+00
  0.00000000E+00  3.95466760E-01  0.00000000E+00  0.00000000E+00  0.00000000E+00
  6.55591831E-02  0.00000000E+00  0.00000000E+00  0.00000000E+00  0.00000000E+00
  0.00000000E+00  0.00000000E+00  0.00000000E+00  0.00000000E+00  0.00000000E+00
  0.00000000E+00  2.96881178E-01  0.00000000E+00  0.00000000E+00  0.00000000E+00
  4.37868444E-01  0.00000000E+00  0.00000000E+00  0.00000000E+00  4.10464784E-01
  0.00000000E+00  0.00000000E+00  0.00000000E+00  1.33865087E-01  0.00000000E+00
  0.00000000E+00  0.00000000E+00  0.00000000E+00  0.00000000E+00  0.00000000E+00
  3.90754834E-02  6.29394875E-02  0.00000000E+00  0.00000000E+00  0.00000000E+00
 -1.57508519E-01  0.00000000E+00  0.00000000E+00  0.00000000E+00 -9.40262693E-01
  0.00000000E+00  0.00000000E+00  0.00000000E+00  1.57126259E+00  0.00000000E+00
  0.00000000E+00  0.00000000E+00 -6.60757430E-04  0.00000000E+00  0.00000000E+00
 -1.14446544E-03  0.00000000E+00  0.00000000E+00  0.00000000E+00 -1.28017294E-01
  0.00000000E+00  0.00000000E+00  0.00000000E+00 -1.31187087E-01  0.00000000E+00
  0.00000000E+00  0.00000000E+00 -4.67246833E-01  0.00000000E+00  0.00000000E+00
  0.00000000E+00  1.23694101E+00  0.00000000E+00  0.00000000E+00  0.00000000E+00
  0.00000000E+00  0.00000000E+00  0.00000000E+00  0.00000000E+00  0.00000000E+00
  0.00000000E+00  0.00000000E+00  0.00000000E+00 -1.28017294E-01  0.00000000E+00
  0.00000000E+00  0.00000000E+00 -1.31187087E-01  0.00000000E+00  0.00000000E+00
  0.00000000E+00 -4.67246833E-01  0.00000000E+00  0.00000000E+00  0.00000000E+00
  1.23694101E+00  0.00000000E+00  0.00000000E+00  0.00000000E+00  0.00000000E+00
  0.00000000E+00  0.00000000E+00  0.00000000E+00  0.00000000E+00 -1.44416716E-01
  0.00000000E+00  0.00000000E+00  0.00000000E+00 -1.56241913E-01  0.00000000E+00
  0.00000000E+00  0.00000000E+00 -5.22715813E-01  0.00000000E+00  0.00000000E+00
  0.00000000E+00  1.24167363E+00  0.00000000E+00  0.00000000E+00  0.00000000E+00
  0.00000000E+00  0.00000000E+00  0.00000000E+00  0.00000000E+00  0.00000000E+00
 -2.65113883E-01  0.00000000E+00  0.00000000E+00  0.00000000E+00 -7.98747332E-01
  0.00000000E+00  0.00000000E+00  0.00000000E+00  1.64308525E+00  0.00000000E+00
  0.00000000E+00  0.00000000E+00 -8.12952072E-01  0.00000000E+00  0.00000000E+00
  0.00000000E+00  0.00000000E+00  0.00000000E+00  0.00000000E+00  0.00000000E+00
  0.00000000E+00  0.00000000E+00  0.00000000E+00  0.00000000E+00 -2.65113883E-01
  0.00000000E+00  0.00000000E+00  0.00000000E+00 -7.98747332E-01  0.00000000E+00
  0.00000000E+00  0.00000000E+00  1.64308525E+00  0.00000000E+00  0.00000000E+00
  0.00000000E+00 -8.12952072E-01  0.00000000E+00  0.00000000E+00  0.00000000E+00
  0.00000000E+00  0.00000000E+00  0.00000000E+00  0.00000000E+00  0.00000000E+00
 -2.70869273E-01  0.00000000E+00  0.00000000E+00  0.00000000E+00 -8.25617124E-01
  0.00000000E+00  0.00000000E+00  0.00000000E+00  1.62577441E+00  0.00000000E+00
  0.00000000E+00  0.00000000E+00 -7.98089021E-01  0.00000000E+00  0.00000000E+00
  0.00000000E+00  0.00000000E+00  0.00000000E+00  0.00000000E+00  1.23164919E-01
  2.42886201E-01  0.00000000E+00  0.00000000E+00  0.00000000E+00 -1.76345788E+00
  0.00000000E+00  0.00000000E+00  0.00000000E+00  2.48742648E+00  0.00000000E+00
  0.00000000E+00  0.00000000E+00 -1.14111680E+00  0.00000000E+00  0.00000000E+00
  0.00000000E+00 -2.37554438E-03  0.00000000E+00  0.00000000E+00 -4.11456356E-03
  0.00000000E+00  2.33861804E-16  3.83171802E-16  0.00000000E+00  0.00000000E+00
  0.00000000E+00 -1.66127786E-15  0.00000000E+00  0.00000000E+00  0.00000000E+00
  3.26871248E-16  0.00000000E+00  0.00000000E+00  0.00000000E+00  2.63221318E-18
  0.00000000E+00  0.00000000E+00  0.00000000E+00  8.66025404E-01  0.00000000E+00
  0.00000000E+00 -5.00000000E-01  0.00000000E+00  0.00000000E+00  0.00000000E+00
  0.00000000E+00  0.00000000E+00  0.00000000E+00  0.00000000E+00  0.00000000E+00
  0.00000000E+00  0.00000000E+00  0.00000000E+00  0.00000000E+00  0.00000000E+00
  0.00000000E+00  0.00000000E+00  0.00000000E+00  0.00000000E+00  0.00000000E+00
  0.00000000E+00  1.00000000E+00  0.00000000E+00  0.00000000E+00  0.00000000E+00
  0.00000000E+00  0.00000000E+00  0.00000000E+00  0.00000000E+00  0.00000000E+00
  0.00000000E+00  0.00000000E+00  0.00000000E+00  0.00000000E+00  0.00000000E+00
  0.00000000E+00  0.00000000E+00  0.00000000E+00  0.00000000E+00  0.00000000E+00
  0.00000000E+00  0.00000000E+00  0.00000000E+00  0.00000000E+00  0.00000000E+00
  0.00000000E+00  1.00000000E+00  0.00000000E+00  0.00000000E+00  0.00000000E+00
  0.00000000E+00  0.00000000E+00  0.00000000E+00  0.00000000E+00  0.00000000E+00
  0.00000000E+00  0.00000000E+00  0.00000000E+00  0.00000000E+00  0.00000000E+00
  0.00000000E+00  0.00000000E+00  0.00000000E+00  0.00000000E+00  0.00000000E+00
  0.00000000E+00  1.00000000E+00  0.00000000E+00  0.00000000E+00  1.45216689E-03
  2.62000127E-03  0.00000000E+00  0.00000000E+00  0.00000000E+00 -1.34347781E-02
  0.00000000E+00  0.00000000E+00  0.00000000E+00  6.85728991E-03  0.00000000E+00
  0.00000000E+00  0.00000000E+00 -3.31837830E-03  0.00000000E+00  0.00000000E+00
  0.00000000E+00  4.99979465E-01  0.00000000E+00  0.00000000E+00  8.65989836E-01
  0.00000000E+00  0.00000000E+00  0.00000000E+00 -1.25848215E+00  0.00000000E+00
  0.00000000E+00  0.00000000E+00  1.49501310E+00  0.00000000E+00  0.00000000E+00
  0.00000000E+00 -8.38172014E-01  0.00000000E+00  0.00000000E+00  0.00000000E+00
  3.12842387E-01  0.00000000E+00  0.00000000E+00  0.00000000E+00  0.00000000E+00
  0.00000000E+00  0.00000000E+00  0.00000000E+00  0.00000000E+00  0.00000000E+00
  0.00000000E+00  0.00000000E+00 -1.25848215E+00  0.00000000E+00  0.00000000E+00
  0.00000000E+00  1.49501310E+00  0.00000000E+00  0.00000000E+00  0.00000000E+00
 -8.38172014E-01  0.00000000E+00  0.00000000E+00  0.00000000E+00  3.12842387E-01
  0.00000000E+00  0.00000000E+00  0.00000000E+00  0.00000000E+00  0.00000000E+00
  0.00000000E+00  0.00000000E+00  0.00000000E+00 -1.26195698E+00  0.00000000E+00
  0.00000000E+00  0.00000000E+00  1.48762272E+00  0.00000000E+00  0.00000000E+00
  0.00000000E+00 -8.31937152E-01  0.00000000E+00  0.00000000E+00  0.00000000E+00
  3.10585163E-01  0.00000000E+00  0.00000000E+00  0.00000000E+00  0.00000000E+00
  0.00000000E+00  0.00000000E+00 -2.32558736E+00  2.39292135E+00  0.00000000E+00
  0.00000000E+00  0.00000000E+00 -1.96356538E-01  0.00000000E+00  0.00000000E+00
  0.00000000E+00  1.94699121E-01  0.00000000E+00  0.00000000E+00  0.00000000E+00
 -7.98281921E-02  0.00000000E+00  0.00000000E+00  0.00000000E+00  8.60727080E-06
  0.00000000E+00  0.00000000E+00  1.49082303E-05  0.00000000E+00
Orthonormal basis                          R   N=         484
  2.43201941E-01  2.48566728E-01  0.00000000E+00  0.00000000E+00  0.00000000E+00
  3.11909684E-01  0.00000000E+00  0.00000000E+00  0.00000000E+00  3.08248900E-01
  0.00000000E+00  0.00000000E+00  0.00000000E+00  2.48713467E-01  0.00000000E+00
  0.00000000E+00  0.00000000E+00 -1.86450083E-17  0.00000000E+00  0.00000000E+00
 -1.65744237E-17  0.00000000E+00  4.33756576E-01  4.30075379E-01  0.00000000E+00
  0.00000000E+00  0.00000000E+00 -8.69081506E-02  0.00000000E+00  0.00000000E+00
  0.00000000E+00 -3.18143230E-01  0.00000000E+00  0.00000000E+00  0.00000000E+00
 -3.50676936E-01  0.00000000E+00  0.00000000E+00  0.00000000E+00  5.04247227E-17
  0.00000000E+00  0.00000000E+00  5.95485801E-17  0.00000000E+00 -6.77808663E-17
 -6.88289112E-17  0.00000000E+00  0.00000000E+00  0.00000000E+00  1.36908280E-16
  0.00000000E+00  0.00000000E+00  0.00000000E+00  1.29363799E-16  0.00000000E+00
  0.00000000E+00  0.00000000E+00 -9.95676482E-17  0.00000000E+00  0.00000000E+00
  0.00000000E+00  5.93254726E-01  0.00000000E+00  0.00000000E+00  8.05014801E-01
  0.00000000E+00 -3.41496546E-29 -1.12034312E-17  0.00000000E+00  0.00000000E+00
  0.00000000E+00  2.47945679E-17  0.00000000E+00  0.00000000E+00  0.00000000E+00
  1.74212799E-17  0.00000000E+00  0.00000000E+00  0.00000000E+00 -2.06756134E-17
  0.00000000E+00  0.00000000E+00  0.00000000E+00  8.05014801E-01  0.00000000E+00
  0.00000000E+00 -5.93254726E-01  0.00000000E+00 -2.80960915E-01 -1.92850672E-01
  0.00000000E+00  0.00000000E+00  0.00000000E+00  1.02585685E+00  0.00000000E+00
  0.00000000E+00  0.00000000E+00  5.78929334E-02  0.00000000E+00  0.00000000E+00
  0.00000000E+00 -8.90798636E-01  0.00000000E+00  0.00000000E+00  0.00000000E+00
 -1.95830849E-16  0.00000000E+00  0.00000000E+00 -1.86469796E-16  0.00000000E+00
  2.00973273E+00 -1.90689255E+00  0.00000000E+00  0.00000000E+00  0.00000000E+00
 -6.29485453E-01  0.00000000E+00  0.00000000E+00  0.00000000E+00  1.28490118E+00
  0.00000000E+00  0.00000000E+00  0.00000000E+00 -8.62468877E-01  0.00000000E+00
  0.00000000E+00  0.00000000E+00 -1.35125723E-16  0.00000000E+00  0.00000000E+00
 -1.05866146E-16  0.00000000E+00 -1.17359287E+00  1.46154954E+00  0.00000000E+00
  0.00000000E+00  0.00000000E+00 -1.42385398E+00  0.00000000E+00  0.00000000E+00
  0.00000000E+00  2.34484702E+00  0.00000000E+00  0.00000000E+00  0.00000000E+00
 -1.43359825E+00  0.00000000E+00  0.00000000E+00  0.00000000E+00 -1.50344135E-16
  0.00000000E+00  0.00000000E+00 -1.72298177E-16  0.00000000E+00  0.00000000E+00
  0.00000000E+00  0.00000000E+00  0.00000000E+00  0.00000000E+00  0.00000000E+00
  0.00000000E+00  0.00000000E+00  0.00000000E+00  0.00000000E+00  0.00000000E+00
  0.00000000E+00  0.00000000E+00  0.00000000E+00  0.00000000E+00  0.00000000E+00
  0.00000000E+00  0.00000000E+00  0.00000000E+00  0.00000000E+00  0.00000000E+00
  1.00000000E+00  0.00000000E+00  0.00000000E+00  0.00000000E+00  0.00000000E+00
  0.00000000E+00  0.00000000E+00  0.00000000E+00  0.00000000E+00  0.00000000E+00
  0.00000000E+00  0.00000000E+00  0.00000000E+00  0.00000000E+00  0.00000000E+00
  0.00000000E+00  0.00000000E+00  0.00000000E+00  0.00000000E+00  1.00000000E+00
  0.00000000E+00  0.00000000E+00  0.00000000E+00  0.00000000E+00  0.00000000E+00
  0.00000000E+00  0.00000000E+00  0.00000000E+00  0.00000000E+00  0.00000000E+00
  0.00000000E+00  0.00000000E+00  0.00000000E+00  0.00000000E+00  0.00000000E+00
  0.00000000E+00  0.00000000E+00  0.00000000E+00  0.00000000E+00  0.00000000E+00
  0.00000000E+00  0.00000000E+00  1.00000000E+00  0.00000000E+00  0.00000000E+00
  0.00000000E+00  0.00000000E+00  0.00000000E+00  0.00000000E+00  2.54113776E-01
  0.00000000E+00  0.00000000E+00  0.00000000E+00  3.72149011E-01  0.00000000E+00
  0.00000000E+00  0.00000000E+00  3.90572601E-01  0.00000000E+00  0.00000000E+00
  0.00000000E+00  2.99308236E-01  0.00000000E+00  0.00000000E+00  0.00000000E+00
  0.00000000E+00  0.00000000E+00  0.00000000E+00  0.00000000E+00  0.00000000E+00
  0.00000000E+00  6.04158525E-01  0.00000000E+00  0.00000000E+00  0.00000000E+00
  3.26994324E-01  0.00000000E+00  0.00000000E+00  0.00000000E+00 -2.97276902E-01