fubar                                                                   
SP        UPBE1PBE                                                    6-311+G(d,p)        
Number of atoms                            I                1
Info1-9                                    I   N=           9
          11          10           0           0           0         110
           1          18       -1302
Full Title                                 C   N=           1
fubar       
Route                                      C   N=           3
#PBE1PBE/6-311+G(d,p) scf=tight     
Charge                                     I                0
Multiplicity                               I                2
Number of electrons                        I                3
Number of alpha electrons                  I                2
Number of beta electrons                   I                1
Number of basis functions                  I               22
Number of independent functions            I               22
Number of point charges in /Mol/           I                0
Number of translation vectors              I                0
Atomic numbers                             I   N=           1
           3
Nuclear charges                            R   N=           1
  3.00000000E+00
Current cartesian coordinates              R   N=           3
  0.00000000E+00  0.00000000E+00  0.00000000E+00
Number of symbols in /Mol/                 I                0
Int Atom Types                             I   N=           1
           0
Force Field                                I                0
Atom Types                                 C   N=           1
            
MM charges                                 R   N=           1
  0.00000000E+00
Integer atomic weights                     I   N=           1
           7
Real atomic weights                        R   N=           1
  7.01600450E+00
Atom fragment info                         I   N=           1
           0
Atom residue num                           I   N=           1
           0
Nuclear spins                              I   N=           1
           3
Nuclear ZEff                               R   N=           1
 -1.35000000E+00
Nuclear ZNuc                               R   N=           1
  3.00000000E+00
Nuclear QMom                               R   N=           1
 -4.01000000E+00
Nuclear GFac                               R   N=           1
  3.25642400E+00
MicOpt                                     I   N=           1
          -1
Number of residues                         I                0
Number of secondary structures             I                0
SymInf integers                            I   N=          26
           1           8           1           1           1           1
          -1          -1          -1           1          -1          -1
          -1           1          -1          -1          -1          -1
           1           1           1          -1           1           1
           1          -1
RotTr to input orientation                 R   N=          12
  0.00000000E+00  0.00000000E+00 -1.00000000E+00  0.00000000E+00  1.00000000E+00
  0.00000000E+00  1.00000000E+00  0.00000000E+00  0.00000000E+00  0.00000000E+00
  0.00000000E+00  0.00000000E+00
Number of contracted shells                I                6
Number of primitive shells                 I               13
Pure/Cartesian d shells                    I                0
Pure/Cartesian f shells                    I                0
Highest angular momentum                   I                2
Largest degree of contraction              I                6
Shell types                                I   N=           6
           0          -1          -1          -1          -1          -2
Number of primitives per shell             I   N=           6
           6           3           1           1           1           1
Shell to atom map                          I   N=           6
           1           1           1           1           1           1
Primitive exponents                        R   N=          13
  9.00460000E+02  1.34433000E+02  3.04365000E+01  8.62639000E+00  2.48332000E+00
  3.03179000E-01  4.86890000E+00  8.56924000E-01  2.43227000E-01  6.35070000E-02
  2.43683000E-02  7.40000000E-03  2.00000000E-01
Contraction coefficients                   R   N=          13
  2.28704037E-03  1.76350029E-02  8.73434143E-02  2.80977046E-01  6.58741108E-01
  1.18712019E-01  9.33292995E-02  9.43044995E-01 -2.79826999E-03  1.00000000E+00
  1.00000000E+00  1.00000000E+00  1.00000000E+00
P(S=P) Contraction coefficients            R   N=          13
  0.00000000E+00  0.00000000E+00  0.00000000E+00  0.00000000E+00  0.00000000E+00
  0.00000000E+00  3.27660966E-02  1.59791983E-01  8.85666908E-01  1.00000000E+00
  1.00000000E+00  1.00000000E+00  0.00000000E+00
Coordinates of each shell                  R   N=          18
  0.00000000E+00  0.00000000E+00  0.00000000E+00  0.00000000E+00  0.00000000E+00
  0.00000000E+00  0.00000000E+00  0.00000000E+00  0.00000000E+00  0.00000000E+00
  0.00000000E+00  0.00000000E+00  0.00000000E+00  0.00000000E+00  0.00000000E+00
  0.00000000E+00  0.00000000E+00  0.00000000E+00
Num ILSW                                   I              100
ILSW                                       I   N=         100
           1           0           0           0           2           0
           0           0           0           0        1009          -1
           5           0           0           0           0           0
           0           0           0           0           0           0
           1           0           0           0           0           0
           0           0      100000           0          -1           0
           0           0           0           0           0           0
           0           0           0           1           0           0
           0 -2000000000           1           0           0           0
           0           0           4          52           0           0
           0           0          13           0           0           0
           0           0           0           1           0           1
           0           0           0           0           0           0
           0           0           0           0           0           0
           0           0           0           0           0           0
           0           0           0           0           0           0
           0           0           0           0
Num RLSW                                   I               52
RLSW                                       R   N=          52
  7.50000000E-01  7.50000000E-01  1.00000000E+00  1.00000000E+00  2.50000000E-01
  0.00000000E+00  0.00000000E+00  1.00000000E+00  0.00000000E+00  0.00000000E+00
  0.00000000E+00  0.00000000E+00  1.00000000E+00  0.00000000E+00  0.00000000E+00
  0.00000000E+00  0.00000000E+00  1.00000000E+00  0.00000000E+00  0.00000000E+00
  0.00000000E+00  0.00000000E+00  1.00000000E+00  0.00000000E+00  0.00000000E+00
  0.00000000E+00  0.00000000E+00  1.00000000E+00  0.00000000E+00  0.00000000E+00
  0.00000000E+00  0.00000000E+00  1.00000000E+00  0.00000000E+00  0.00000000E+00
  0.00000000E+00  0.00000000E+00  0.00000000E+00  1.00000000E+00  1.00000000E+00
  0.00000000E+00  1.00000000E+00  0.00000000E+00  0.00000000E+00  0.00000000E+00
  0.00000000E+00  0.00000000E+00  0.00000000E+00  0.00000000E+00  0.00000000E+00
  0.00000000E+00  0.00000000E+00
MxBond                                     I                1
NBond                                      I   N=           1
           0
IBond                                      I   N=           1
           0
RBond                                      R   N=           1
  0.00000000E+00
Virial Ratio                               R      2.006028506483073E+00
SCF Energy                                 R     -7.465731459832064E+00
Total Energy                               R     -7.465731459832064E+00
S**2                                       R      7.500007159030516E-01
S**2 after annihilation                    R      7.500000000000004E-01
RMS Density                                R      7.904269757008647E-09
Job Status                                 I                1
Nuclear derivative order                   I                0
External E-field                           R   N=          35
  0.00000000E+00  0.00000000E+00  0.00000000E+00  0.00000000E+00  0.00000000E+00
  0.00000000E+00  0.00000000E+00  0.00000000E+00  0.00000000E+00  0.00000000E+00
  0.00000000E+00  0.00000000E+00  0.00000000E+00  0.00000000E+00  0.00000000E+00
  0.00000000E+00  0.00000000E+00  0.00000000E+00  0.00000000E+00  0.00000000E+00
  0.00000000E+00  0.00000000E+00  0.00000000E+00  0.00000000E+00  0.00000000E+00
  0.00000000E+00  0.00000000E+00  0.00000000E+00  0.00000000E+00  0.00000000E+00
  0.00000000E+00  0.00000000E+00  0.00000000E+00  0.00000000E+00  0.00000000E+00
IOpCl                                      I                1
IROHF                                      I                0
Alpha Orbital Energies                     R   N=          22
 -2.04870853E+00 -1.40405667E-01 -3.04771980E-02 -3.04771980E-02 -3.04771980E-02
  2.71628548E-03  1.46094620E-02  1.46094620E-02  1.46094620E-02  8.40882266E-02
  8.76605517E-02  8.76605517E-02  8.76605517E-02  4.31079405E-01  4.31079405E-01
  4.31079405E-01  4.31079405E-01  4.31079405E-01  4.39689325E-01  4.39689325E-01
  4.39689325E-01  3.52549058E+00
Beta Orbital Energies                      R   N=          22
 -2.03799655E+00 -4.65611700E-03  1.54592644E-02  1.54592644E-02  1.54592644E-02
  2.29056729E-02  6.49876544E-02  6.49876544E-02  6.49876544E-02  1.32176913E-01
  1.32176913E-01  1.32176913E-01  1.33921250E-01  4.90051705E-01  4.90051705E-01
  4.90051705E-01  5.00042264E-01  5.00042264E-01  5.00042264E-01  5.00042264E-01
  5.00042264E-01  3.54670469E+00
Alpha MO coefficients                      R   N=         484
  6.16821776E-01  4.26800340E-01  0.00000000E+00  0.00000000E+00  0.00000000E+00
  1.56229171E-02  0.00000000E+00  0.00000000E+00  0.00000000E+00 -1.13712147E-02
  0.00000000E+00  0.00000000E+00  0.00000000E+00  3.41167385E-03  0.00000000E+00
  0.00000000E+00  0.00000000E+00 -2.39951834E-16  0.00000000E+00  0.00000000E+00
  1.00319011E-18  0.00000000E+00 -1.08433358E-01 -1.68829391E-01  0.00000000E+00
  0.00000000E+00  0.00000000E+00  7.30588399E-01  0.00000000E+00  0.00000000E+00
  0.00000000E+00  3.38003154E-01  0.00000000E+00  0.00000000E+00  0.00000000E+00
  1.02501328E-02  0.00000000E+00  0.00000000E+00  0.00000000E+00  1.33824711E-16
  0.00000000E+00  0.00000000E+00 -4.42355053E-16  0.00000000E+00  0.00000000E+00
  0.00000000E+00  0.00000000E+00  0.00000000E+00  1.55892627E-01  0.00000000E+00
  0.00000000E+00  0.00000000E+00  4.70044553E-01  0.00000000E+00  0.00000000E+00
  0.00000000E+00  4.21414686E-01  0.00000000E+00  0.00000000E+00  0.00000000E+00
  1.63179982E-01  0.00000000E+00  0.00000000E+00  0.00000000E+00  0.00000000E+00
  0.00000000E+00  0.00000000E+00  0.00000000E+00  0.00000000E+00  1.55892627E-01
  0.00000000E+00  0.00000000E+00  0.00000000E+00  4.70044553E-01  0.00000000E+00
  0.00000000E+00  0.00000000E+00  4.21414686E-01  0.00000000E+00  0.00000000E+00
  0.00000000E+00  1.63179982E-01  0.00000000E+00  0.00000000E+00  0.00000000E+00
  0.00000000E+00  0.00000000E+00  0.00000000E+00  0.00000000E+00  0.00000000E+00
  1.55892627E-01  0.00000000E+00  0.00000000E+00  0.00000000E+00  4.70044553E-01
  0.00000000E+00  0.00000000E+00  0.00000000E+00  4.21414686E-01  0.00000000E+00
  0.00000000E+00  0.00000000E+00  1.63179982E-01  0.00000000E+00  0.00000000E+00
  0.00000000E+00  0.00000000E+00  0.00000000E+00  0.00000000E+00  0.00000000E+00
  3.55797550E-02  5.65415566E-02  0.00000000E+00  0.00000000E+00  0.00000000E+00
 -2.77085648E-01  0.00000000E+00  0.00000000E+00  0.00000000E+00 -6.49298822E-01
  0.00000000E+00  0.00000000E+00  0.00000000E+00  1.41927521E+00  0.00000000E+00
  0.00000000E+00  0.00000000E+00 -4.84829390E-17  0.00000000E+00  0.00000000E+00
  2.62865800E-16  0.00000000E+00  0.00000000E+00  0.00000000E+00  0.00000000E+00
  0.00000000E+00 -9.32199158E-02  0.00000000E+00  0.00000000E+00  0.00000000E+00
 -2.20504110E-01  0.00000000E+00  0.00000000E+00  0.00000000E+00 -4.88834346E-01
  0.00000000E+00  0.00000000E+00  0.00000000E+00  1.19733016E+00  0.00000000E+00
  0.00000000E+00  0.00000000E+00  0.00000000E+00  0.00000000E+00  0.00000000E+00
  0.00000000E+00  0.00000000E+00 -9.32199158E-02  0.00000000E+00  0.00000000E+00
  0.00000000E+00 -2.20504110E-01  0.00000000E+00  0.00000000E+00  0.00000000E+00
 -4.88834346E-01  0.00000000E+00  0.00000000E+00  0.00000000E+00  1.19733016E+00
  0.00000000E+00  0.00000000E+00  0.00000000E+00  0.00000000E+00  0.00000000E+00
  0.00000000E+00  0.00000000E+00  0.00000000E+00 -9.32199158E-02  0.00000000E+00
  0.00000000E+00  0.00000000E+00 -2.20504110E-01  0.00000000E+00  0.00000000E+00
  0.00000000E+00 -4.88834346E-01  0.00000000E+00  0.00000000E+00  0.00000000E+00
  1.19733016E+00  0.00000000E+00  0.00000000E+00  0.00000000E+00  0.00000000E+00
  0.00000000E+00  0.00000000E+00  0.00000000E+00  9.29176799E-02  1.79972411E-01
  0.00000000E+00  0.00000000E+00  0.00000000E+00 -2.24378421E+00  0.00000000E+00
  0.00000000E+00  0.00000000E+00  3.10794452E+00  0.00000000E+00  0.00000000E+00
  0.00000000E+00 -1.26305576E+00  0.00000000E+00  0.00000000E+00  0.00000000E+00
  2.69184694E-16  0.00000000E+00  0.00000000E+00 -3.15409988E-16  0.00000000E+00
  0.00000000E+00  0.00000000E+00  0.00000000E+00 -1.59504842E-01  0.00000000E+00
  0.00000000E+00  0.00000000E+00 -1.35608956E+00  0.00000000E+00  0.00000000E+00
  0.00000000E+00  1.96585214E+00  0.00000000E+00  0.00000000E+00  0.00000000E+00
 -8.09339131E-01  0.00000000E+00  0.00000000E+00  0.00000000E+00  0.00000000E+00
  0.00000000E+00  0.00000000E+00  0.00000000E+00  0.00000000E+00  0.00000000E+00
  0.00000000E+00 -1.59504842E-01  0.00000000E+00  0.00000000E+00  0.00000000E+00
 -1.35608956E+00  0.00000000E+00  0.00000000E+00  0.00000000E+00  1.96585214E+00
  0.00000000E+00  0.00000000E+00  0.00000000E+00 -8.09339131E-01  0.00000000E+00
  0.00000000E+00  0.00000000E+00  0.00000000E+00  0.00000000E+00  0.00000000E+00
  0.00000000E+00 -1.59504842E-01  0.00000000E+00  0.00000000E+00  0.00000000E+00
 -1.35608956E+00  0.00000000E+00  0.00000000E+00  0.00000000E+00  1.96585214E+00
  0.00000000E+00  0.00000000E+00  0.00000000E+00 -8.09339131E-01  0.00000000E+00
  0.00000000E+00  0.00000000E+00  0.00000000E+00  0.00000000E+00  0.00000000E+00
  0.00000000E+00  0.00000000E+00  0.00000000E+00  0.00000000E+00  0.00000000E+00
  0.00000000E+00  0.00000000E+00  0.00000000E+00  0.00000000E+00  0.00000000E+00
  0.00000000E+00  0.00000000E+00  0.00000000E+00  0.00000000E+00  0.00000000E+00
  0.00000000E+00  0.00000000E+00  0.00000000E+00  0.00000000E+00  0.00000000E+00
  0.00000000E+00  0.00000000E+00  1.00000000E+00  0.00000000E+00  0.00000000E+00
  0.00000000E+00  0.00000000E+00  0.00000000E+00  0.00000000E+00  0.00000000E+00
  0.00000000E+00  0.00000000E+00  0.00000000E+00  0.00000000E+00  0.00000000E+00
  0.00000000E+00  0.00000000E+00  0.00000000E+00  0.00000000E+00  0.00000000E+00
  0.00000000E+00  1.00000000E+00  0.00000000E+00  0.00000000E+00  0.00000000E+00
  0.00000000E+00  0.00000000E+00  0.00000000E+00  0.00000000E+00  0.00000000E+00
  0.00000000E+00  0.00000000E+00  0.00000000E+00  0.00000000E+00  0.00000000E+00
  0.00000000E+00  0.00000000E+00  0.00000000E+00  0.00000000E+00  0.00000000E+00
  0.00000000E+00  0.00000000E+00  0.00000000E+00  0.00000000E+00  1.00000000E+00
  0.00000000E+00  0.00000000E+00 -1.41201083E-16 -8.99529690E-17  0.00000000E+00
  0.00000000E+00  0.00000000E+00 -9.35579955E-18  0.00000000E+00  0.00000000E+00
  0.00000000E+00  1.23371036E-15  0.00000000E+00  0.00000000E+00  0.00000000E+00
 -6.57872157E-16  0.00000000E+00  0.00000000E+00  0.00000000E+00  5.35853126E-01
  0.00000000E+00  0.00000000E+00  8.44311215E-01  0.00000000E+00 -4.18420825E-17
 -2.10491606E-17  0.00000000E+00  0.00000000E+00  0.00000000E+00  1.00661871E-15
  0.00000000E+00  0.00000000E+00  0.00000000E+00 -2.52099585E-15  0.00000000E+00
  0.00000000E+00  0.00000000E+00  1.27676462E-15  0.00000000E+00  0.00000000E+00
  0.00000000E+00  8.44311215E-01  0.00000000E+00  0.00000000E+00 -5.35853126E-01
  0.00000000E+00  0.00000000E+00  0.00000000E+00  0.00000000E+00  0.00000000E+00
 -1.27606677E+00  0.00000000E+00  0.00000000E+00  0.00000000E+00  1.54302444E+00
  0.00000000E+00  0.00000000E+00  0.00000000E+00 -1.00746714E+00  0.00000000E+00
  0.00000000E+00  0.00000000E+00  2.92668312E-01  0.00000000E+00  0.00000000E+00
  0.00000000E+00  0.00000000E+00  0.00000000E+00  0.00000000E+00  0.00000000E+00
  0.00000000E+00 -1.27606677E+00  0.00000000E+00  0.00000000E+00  0.00000000E+00
  1.54302444E+00  0.00000000E+00  0.00000000E+00  0.00000000E+00 -1.00746714E+00
  0.00000000E+00  0.00000000E+00  0.00000000E+00  2.92668312E-01  0.00000000E+00
  0.00000000E+00  0.00000000E+00  0.00000000E+00  0.00000000E+00  0.00000000E+00
  0.00000000E+00  0.00000000E+00 -1.27606677E+00  0.00000000E+00  0.00000000E+00
  0.00000000E+00  1.54302444E+00  0.00000000E+00  0.00000000E+00  0.00000000E+00
 -1.00746714E+00  0.00000000E+00  0.00000000E+00  0.00000000E+00  2.92668312E-01
  0.00000000E+00  0.00000000E+00  0.00000000E+00  0.00000000E+00  0.00000000E+00
  0.00000000E+00  0.00000000E+00 -1.65243241E+00  1.82124566E+00  0.00000000E+00
  0.00000000E+00  0.00000000E+00 -5.75427070E-01  0.00000000E+00  0.00000000E+00
  0.00000000E+00  4.75903172E-01  0.00000000E+00  0.00000000E+00  0.00000000E+00
 -1.46969485E-01  0.00000000E+00  0.00000000E+00  0.00000000E+00 -1.12567457E-16
  0.00000000E+00  0.00000000E+00 -1.10032799E-17  0.00000000E+00
Beta MO coefficients                       R   N=         484
  6.15460215E-01  4.28247294E-01  0.00000000E+00  0.00000000E+00  0.00000000E+00
  1.56441589E-02  0.00000000E+00  0.00000000E+00  0.00000000E+00 -1.17054227E-02
  0.00000000E+00  0.00000000E+00  0.00000000E+00  3.55279649E-03  0.00000000E+00
  0.00000000E+00  0.00000000E+00 -6.18034442E-17  0.00000000E+00  0.00000000E+00
 -2.40083524E-16  0.00000000E+00 -9.50978919E-02 -1.39976992E-01  0.00000000E+00
  0.00000000E+00  0.00000000E+00  7.45422654E-01  0.00000000E+00  0.00000000E+00
  0.00000000E+00 -2.58285440E-01  0.00000000E+00  0.00000000E+00  0.00000000E+00
  7.30026397E-01  0.00000000E+00  0.00000000E+00  0.00000000E+00  1.26220225E-18
  0.00000000E+00  0.00000000E+00  3.17350519E-16  0.00000000E+00  0.00000000E+00
  0.00000000E+00  2.80768780E-02  0.00000000E+00  0.00000000E+00  0.00000000E+00
  1.18536629E-01  0.00000000E+00  0.00000000E+00  0.00000000E+00 -3.20445952E-01
  0.00000000E+00  0.00000000E+00  0.00000000E+00  1.15956334E+00  0.00000000E+00
  0.00000000E+00  0.00000000E+00  0.00000000E+00  0.00000000E+00  0.00000000E+00
  0.00000000E+00  0.00000000E+00  0.00000000E+00  0.00000000E+00  0.00000000E+00
  2.80768780E-02  0.00000000E+00  0.00000000E+00  0.00000000E+00  1.18536629E-01
  0.00000000E+00  0.00000000E+00  0.00000000E+00 -3.20445952E-01  0.00000000E+00
  0.00000000E+00  0.00000000E+00  1.15956334E+00  0.00000000E+00  0.00000000E+00
  0.00000000E+00  0.00000000E+00  0.00000000E+00  0.00000000E+00  0.00000000E+00
  0.00000000E+00  2.80768780E-02  0.00000000E+00  0.00000000E+00  0.00000000E+00
  1.18536629E-01  0.00000000E+00  0.00000000E+00  0.00000000E+00 -3.20445952E-01
  0.00000000E+00  0.00000000E+00  0.00000000E+00  1.15956334E+00  0.00000000E+00
  0.00000000E+00  0.00000000E+00  0.00000000E+00  0.00000000E+00  0.00000000E+00
  7.19612159E-02  9.94103777E-02  0.00000000E+00  0.00000000E+00  0.00000000E+00
 -3.08832607E-01  0.00000000E+00  0.00000000E+00  0.00000000E+00 -1.08109777E+00
  0.00000000E+00  0.00000000E+00  0.00000000E+00  1.40746651E+00  0.00000000E+00
  0.00000000E+00  0.00000000E+00 -1.09989553E-17  0.00000000E+00  0.00000000E+00
 -1.55345099E-16  0.00000000E+00  0.00000000E+00  0.00000000E+00  0.00000000E+00
  0.00000000E+00  2.59236493E-01  0.00000000E+00  0.00000000E+00  0.00000000E+00
  5.29195384E-02  0.00000000E+00  0.00000000E+00  0.00000000E+00  1.12686405E+00
  0.00000000E+00  0.00000000E+00  0.00000000E+00 -6.51401260E-01  0.00000000E+00
  0.00000000E+00  0.00000000E+00  0.00000000E+00  0.00000000E+00  0.00000000E+00
  0.00000000E+00  0.00000000E+00  2.59236493E-01  0.00000000E+00  0.00000000E+00
  0.00000000E+00  5.29195384E-02  0.00000000E+00  0.00000000E+00  0.00000000E+00
  1.12686405E+00  0.00000000E+00  0.00000000E+00  0.00000000E+00 -6.51401260E-01
  0.00000000E+00  0.00000000E+00  0.00000000E+00  0.00000000E+00  0.00000000E+00
  0.00000000E+00  0.00000000E+00  0.00000000E+00  2.59236493E-01  0.00000000E+00
  0.00000000E+00  0.00000000E+00  5.29195384E-02  0.00000000E+00  0.00000000E+00
  0.00000000E+00  1.12686405E+00  0.00000000E+00  0.00000000E+00  0.00000000E+00
 -6.51401260E-01  0.00000000E+00  0.00000000E+00  0.00000000E+00  0.00000000E+00
  0.00000000E+00  0.00000000E+00  0.00000000E+00  0.00000000E+00  0.00000000E+00
 -2.61161171E-01  0.00000000E+00  0.00000000E+00  0.00000000E+00 -1.34894886E+00
  0.00000000E+00  0.00000000E+00  0.00000000E+00  1.70923036E+00  0.00000000E+00
  0.00000000E+00  0.00000000E+00 -5.94343072E-01  0.00000000E+00  0.00000000E+00
  0.00000000E+00  0.00000000E+00  0.00000000E+00  0.00000000E+00  0.00000000E+00
  0.00000000E+00  0.00000000E+00  0.00000000E+00  0.00000000E+00 -2.61161171E-01
  0.00000000E+00  0.00000000E+00  0.00000000E+00 -1.34894886E+00  0.00000000E+00
  0.00000000E+00  0.00000000E+00  1.70923036E+00  0.00000000E+00  0.00000000E+00
  0.00000000E+00 -5.94343072E-01  0.00000000E+00  0.00000000E+00  0.00000000E+00
  0.00000000E+00  0.00000000E+00  0.00000000E+00  0.00000000E+00  0.00000000E+00
 -2.61161171E-01  0.00000000E+00  0.00000000E+00  0.00000000E+00 -1.34894886E+00
  0.00000000E+00  0.00000000E+00  0.00000000E+00  1.70923036E+00  0.00000000E+00
  0.00000000E+00  0.00000000E+00 -5.94343072E-01  0.00000000E+00  0.00000000E+00
  0.00000000E+00  0.00000000E+00  0.00000000E+00  0.00000000E+00  9.50172313E-02
  1.78655143E-01  0.00000000E+00  0.00000000E+00  0.00000000E+00 -2.23352673E+00
  0.00000000E+00  0.00000000E+00  0.00000000E+00  2.99308392E+00  0.00000000E+00
  0.00000000E+00  0.00000000E+00 -1.04686927E+00  0.00000000E+00  0.00000000E+00
  0.00000000E+00  3.88600709E-16  0.00000000E+00  0.00000000E+00  3.99281520E-16
  0.00000000E+00  0.00000000E+00  0.00000000E+00  0.00000000E+00  0.00000000E+00
 -1.24522433E+00  0.00000000E+00  0.00000000E+00  0.00000000E+00  1.62878875E+00
  0.00000000E+00  0.00000000E+00  0.00000000E+00 -1.00106812E+00  0.00000000E+00
  0.00000000E+00  0.00000000E+00  2.80637409E-01  0.00000000E+00  0.00000000E+00
  0.00000000E+00  0.00000000E+00  0.00000000E+00  0.00000000E+00  0.00000000E+00
 -1.24522433E+00  0.00000000E+00  0.00000000E+00  0.00000000E+00  1.62878875E+00
  0.00000000E+00  0.00000000E+00  0.00000000E+00 -1.00106812E+00  0.00000000E+00
  0.00000000E+00  0.00000000E+00  2.80637409E-01  0.00000000E+00  0.00000000E+00
  0.00000000E+00  0.00000000E+00  0.00000000E+00  0.00000000E+00  0.00000000E+00
  0.00000000E+00  0.00000000E+00  0.00000000E+00 -1.24522433E+00  0.00000000E+00
  0.00000000E+00  0.00000000E+00  1.62878875E+00  0.00000000E+00  0.00000000E+00
  0.00000000E+00 -1.00106812E+00  0.00000000E+00  0.00000000E+00  0.00000000E+00
  2.80637409E-01  0.00000000E+00  0.00000000E+00  0.00000000E+00  0.00000000E+00
  0.00000000E+00  0.00000000E+00  0.00000000E+00  0.00000000E+00  0.00000000E+00
  0.00000000E+00  0.00000000E+00  0.00000000E+00  0.00000000E+00  0.00000000E+00
  0.00000000E+00  0.00000000E+00  0.00000000E+00  0.00000000E+00  0.00000000E+00
  0.00000000E+00  0.00000000E+00  0.00000000E+00  0.00000000E+00  0.00000000E+00
  0.00000000E+00  0.00000000E+00  0.00000000E+00  1.00000000E+00  0.00000000E+00
  0.00000000E+00  0.00000000E+00  0.00000000E+00  0.00000000E+00  0.00000000E+00
  0.00000000E+00  0.00000000E+00  0.00000000E+00  0.00000000E+00  0.00000000E+00
  0.00000000E+00  0.00000000E+00  0.00000000E+00  0.00000000E+00  0.00000000E+00
  0.00000000E+00  0.00000000E+00  1.00000000E+00  0.00000000E+00  0.00000000E+00
  0.00000000E+00  0.00000000E+00  0.00000000E+00  0.00000000E+00  0.00000000E+00
  0.00000000E+00  0.00000000E+00  0.00000000E+00  0.00000000E+00  0.00000000E+00
  0.00000000E+00  0.00000000E+00  0.00000000E+00  0.00000000E+00  0.00000000E+00
  0.00000000E+00  0.00000000E+00  0.00000000E+00  0.00000000E+00  0.00000000E+00
  1.00000000E+00  0.00000000E+00  0.00000000E+00  1.85858827E-17  5.87836392E-17
  0.00000000E+00  0.00000000E+00  0.00000000E+00  6.34887051E-16  0.00000000E+00
  0.00000000E+00  0.00000000E+00 -1.13643313E-15  0.00000000E+00  0.00000000E+00
  0.00000000E+00  4.92514206E-16  0.00000000E+00  0.00000000E+00  0.00000000E+00
  9.99631693E-01  0.00000000E+00  0.00000000E+00  2.71381487E-02  0.00000000E+00
 -1.21949074E-16 -1.73513846E-16  0.00000000E+00  0.00000000E+00  0.00000000E+00
  1.70452068E-15  0.00000000E+00  0.00000000E+00  0.00000000E+00 -2.52379631E-15
  0.00000000E+00  0.00000000E+00  0.00000000E+00  1.09712541E-15  0.00000000E+00
  0.00000000E+00  0.00000000E+00 -2.71381487E-02  0.00000000E+00  0.00000000E+00
  9.99631693E-01  0.00000000E+00 -1.65245811E+00  1.82164631E+00  0.00000000E+00
  0.00000000E+00  0.00000000E+00 -5.80124927E-01  0.00000000E+00  0.00000000E+00
  0.00000000E+00  4.77069383E-01  0.00000000E+00  0.00000000E+00  0.00000000E+00
 -1.46698011E-01  0.00000000E+00  0.00000000E+00  0.00000000E+00 -1.21213267E-16
  0.00000000E+00  0.00000000E+00  1.55300175E-18  0.00000000E+00
Orthonormal basis                          R   N=         484
  1.84076548E-01  2.14623396E-01  0.00000000E+00  0.00000000E+00  0.00000000E+00
  3.29791692E-01  0.00000000E+00  0.00000000E+00  0.00000000E+00  3.41076958E-01
  0.00000000E+00  0.00000000E+00  0.00000000E+00  2.76009801E-01  0.00000000E+00
  0.00000000E+00  0.00000000E+00  7.34018349E-18  0.00000000E+00  0.00000000E+00
  0.00000000E+00  0.00000000E+00  4.93533804E-01  4.68045001E-01  0.00000000E+00
  0.00000000E+00  0.00000000E+00 -1.01645313E-01  0.00000000E+00  0.00000000E+00
  0.00000000E+00 -2.42001301E-01  0.00000000E+00  0.00000000E+00  0.00000000E+00
 -2.72593794E-01  0.00000000E+00  0.00000000E+00  0.00000000E+00  3.98856870E-17
  0.00000000E+00  0.00000000E+00  0.00000000E+00  0.00000000E+00 -6.80864130E-17
 -1.01262339E-18  0.00000000E+00  0.00000000E+00  0.00000000E+00 -4.27154151E-18
  0.00000000E+00  0.00000000E+00  0.00000000E+00  5.66373593E-18  0.00000000E+00
  0.00000000E+00  0.00000000E+00  1.78360335E-17  0.00000000E+00  0.00000000E+00
  0.00000000E+00  1.00000000E+00  0.00000000E+00  0.00000000E+00  0.00000000E+00
  0.00000000E+00  0.00000000E+00  0.00000000E+00  0.00000000E+00  0.00000000E+00
  0.00000000E+00  0.00000000E+00  0.00000000E+00  0.00000000E+00  0.00000000E+00
  0.00000000E+00  0.00000000E+00  0.00000000E+00  0.00000000E+00  0.00000000E+00
  0.00000000E+00  0.00000000E+00  0.00000000E+00  0.00000000E+00  0.00000000E+00
  0.00000000E+00  1.00000000E+00  0.00000000E+00  3.18966190E-01  1.12146740E-03
  0.00000000E+00  0.00000000E+00  0.00000000E+00 -9.13955465E-01  0.00000000E+00
  0.00000000E+00  0.00000000E+00 -1.20031764E-01  0.00000000E+00  0.00000000E+00
  0.00000000E+00  1.02677549E+00  0.00000000E+00  0.00000000E+00  0.00000000E+00
 -1.49185685E-18  0.00000000E+00  0.00000000E+00  0.00000000E+00  0.00000000E+00
 -1.62002795E+00  1.69495660E+00  0.00000000E+00  0.00000000E+00  0.00000000E+00
 -8.62373782E-02  0.00000000E+00  0.00000000E+00  0.00000000E+00 -4.13384779E-01
  0.00000000E+00  0.00000000E+00  0.00000000E+00  3.76320704E-01  0.00000000E+00
  0.00000000E+00  0.00000000E+00 -1.13697472E-16  0.00000000E+00  0.00000000E+00
  0.00000000E+00  0.00000000E+00 -3.59123377E-01  6.52055367E-01  0.00000000E+00
  0.00000000E+00  0.00000000E+00 -2.23933428E+00  0.00000000E+00  0.00000000E+00
  0.00000000E+00  3.17199852E+00  0.00000000E+00  0.00000000E+00  0.00000000E+00
 -1.51161991E+00  0.00000000E+00  0.00000000E+00  0.00000000E+00 -2.42240217E-17
  0.00000000E+00  0.00000000E+00  0.00000000E+00  0.00000000E+00  0.00000000E+00
  0.00000000E+00  0.00000000E+00  0.00000000E+00  0.00000000E+00  0.00000000E+00
  0.00000000E+00  0.00000000E+00  0.00000000E+00  0.00000000E+00  0.00000000E+00
  0.00000000E+00  0.00000000E+00  0.00000000E+00  0.00000000E+00  0.00000000E+00
  0.00000000E+00  0.00000000E+00  0.00000000E+00  0.00000000E+00  0.00000000E+00
  1.00000000E+00  0.00000000E+00  0.00000000E+00  0.00000000E+00  0.00000000E+00
  0.00000000E+00  0.00000000E+00  0.00000000E+00  0.00000000E+00  0.00000000E+00
  0.00000000E+00  0.00000000E+00  0.00000000E+00  0.00000000E+00  0.00000000E+00
  0.00000000E+00  0.00000000E+00  0.00000000E+00  0.00000000E+00  1.00000000E+00
  0.00000000E+00  0.00000000E+00  0.00000000E+00  0.00000000E+00  0.00000000E+00
  0.00000000E+00  0.00000000E+00  0.00000000E+00  0.00000000E+00  0.00000000E+00
  0.00000000E+00  0.00000000E+00  0.00000000E+00  0.00000000E+00  0.00000000E+00
  0.00000000E+00  0.00000000E+00  0.00000000E+00  0.00000000E+00  0.00000000E+00
  0.00000000E+00  0.00000000E+00  1.00000000E+00  0.00000000E+00  0.00000000E+00
  0.00000000E+00  0.00000000E+00  0.00000000E+00  0.00000000E+00  2.33885646E-01
  0.00000000E+00  0.00000000E+00  0.00000000E+00  3.75450243E-01  0.00000000E+00
  0.00000000E+00  0.00000000E+00  3.88510353E-01  0.00000000E+00  0.00000000E+00
  0.00000000E+00  2.81315845E-01  0.00000000E+00  0.00000000E+00  0.00000000E+00
  0.00000000E+00  0.00000000E+00  0.00000000E+00  0.00000000E+00  0.00000000E+00
  0.00000000E+00  6.82102789E-01  0.00000000E+00  0.00000000E+00  0.00000000E+00
  2.63967830E-01  0.00000000E+00  0.00000000E+00  0.00000000E+00 -2.49077896E-01