fubar                                                                   
SP        UPBE1PBE                                                    6-311+G(d,p)        
Number of atoms                            I                1
Info1-9                                    I   N=           9
          11          10           0           0           0         110
           1          18       -1302
Full Title                                 C   N=           1
fubar       
Route                                      C   N=           3
#PBE1PBE/6-311+G(d,p) scf=tight     
Charge                                     I                0
Multiplicity                               I                4
Number of electrons                        I                7
Number of alpha electrons                  I                5
Number of beta electrons                   I                2
Number of basis functions                  I               22
Number of independent functions            I               22
Number of point charges in /Mol/           I                0
Number of translation vectors              I                0
Atomic numbers                             I   N=           1
           7
Nuclear charges                            R   N=           1
  7.00000000E+00
Current cartesian coordinates              R   N=           3
  0.00000000E+00  0.00000000E+00  0.00000000E+00
Number of symbols in /Mol/                 I                0
Int Atom Types                             I   N=           1
           0
Force Field                                I                0
Atom Types                                 C   N=           1
            
MM charges                                 R   N=           1
  0.00000000E+00
Integer atomic weights                     I   N=           1
          14
Real atomic weights                        R   N=           1
  1.40030740E+01
Atom fragment info                         I   N=           1
           0
Atom residue num                           I   N=           1
           0
Nuclear spins                              I   N=           1
           2
Nuclear ZEff                               R   N=           1
 -4.55000000E+00
Nuclear ZNuc                               R   N=           1
  7.00000000E+00
Nuclear QMom                               R   N=           1
  2.04400000E+00
Nuclear GFac                               R   N=           1
  4.03761000E-01
MicOpt                                     I   N=           1
          -1
Number of residues                         I                0
Number of secondary structures             I                0
SymInf integers                            I   N=          26
           1           8           1           1           1           1
          -1          -1          -1           1          -1          -1
          -1           1          -1          -1          -1          -1
           1           1           1          -1           1           1
           1          -1
RotTr to input orientation                 R   N=          12
  0.00000000E+00  0.00000000E+00 -1.00000000E+00  0.00000000E+00  1.00000000E+00
  0.00000000E+00  1.00000000E+00  0.00000000E+00  0.00000000E+00  0.00000000E+00
  0.00000000E+00  0.00000000E+00
Number of contracted shells                I                6
Number of primitive shells                 I               13
Pure/Cartesian d shells                    I                0
Pure/Cartesian f shells                    I                0
Highest angular momentum                   I                2
Largest degree of contraction              I                6
Shell types                                I   N=           6
           0          -1          -1          -1          -1          -2
Number of primitives per shell             I   N=           6
           6           3           1           1           1           1
Shell to atom map                          I   N=           6
           1           1           1           1           1           1
Primitive exponents                        R   N=          13
  6.29348000E+03  9.49044000E+02  2.18776000E+02  6.36916000E+01  1.88282000E+01
  2.72023000E+00  3.06331000E+01  7.02614000E+00  2.11205000E+00  6.84009000E-01
  2.00878000E-01  6.39000000E-02  9.13000000E-01
Contraction coefficients                   R   N=          13
  1.96978815E-03  1.49612859E-02  7.35005308E-02  2.48936766E-01  6.02459433E-01
  2.56201759E-01  1.11906080E-01  9.21666655E-01 -2.56919183E-03  1.00000000E+00
  1.00000000E+00  1.00000000E+00  1.00000000E+00
P(S=P) Contraction coefficients            R   N=          13
  0.00000000E+00  0.00000000E+00  0.00000000E+00  0.00000000E+00  0.00000000E+00
  0.00000000E+00  3.83119186E-02  2.37403116E-01  8.17592398E-01  1.00000000E+00
  1.00000000E+00  1.00000000E+00  0.00000000E+00
Coordinates of each shell                  R   N=          18
  0.00000000E+00  0.00000000E+00  0.00000000E+00  0.00000000E+00  0.00000000E+00
  0.00000000E+00  0.00000000E+00  0.00000000E+00  0.00000000E+00  0.00000000E+00
  0.00000000E+00  0.00000000E+00  0.00000000E+00  0.00000000E+00  0.00000000E+00
  0.00000000E+00  0.00000000E+00  0.00000000E+00
Num ILSW                                   I              100
ILSW                                       I   N=         100
           1           0           0           0           2           0
           0           0           0           0        1009          -1
           5           0           0           0           0           0
           0           0           0           0           0           0
           1           0           0           0           0           0
           0           0      100000           0          -1           0
           0           0           0           0           0           0
           0           0           0           1           0           0
           0 -2000000000           1           0           0           0
           0           0           4          52           0           0
           0           0          13           0           0           0
           0           0           0           1           0           1
           0           0           0           0           0           0
           0           0           0           0           0           0
           0           0           0           0           0           0
           0           0           0           0           0           0
           0           0           0           0
Num RLSW                                   I               52
RLSW                                       R   N=          52
  7.50000000E-01  7.50000000E-01  1.00000000E+00  1.00000000E+00  2.50000000E-01
  0.00000000E+00  0.00000000E+00  1.00000000E+00  0.00000000E+00  0.00000000E+00
  0.00000000E+00  0.00000000E+00  1.00000000E+00  0.00000000E+00  0.00000000E+00
  0.00000000E+00  0.00000000E+00  1.00000000E+00  0.00000000E+00  0.00000000E+00
  0.00000000E+00  0.00000000E+00  1.00000000E+00  0.00000000E+00  0.00000000E+00
  0.00000000E+00  0.00000000E+00  1.00000000E+00  0.00000000E+00  0.00000000E+00
  0.00000000E+00  0.00000000E+00  1.00000000E+00  0.00000000E+00  0.00000000E+00
  0.00000000E+00  0.00000000E+00  0.00000000E+00  1.00000000E+00  1.00000000E+00
  0.00000000E+00  1.00000000E+00  0.00000000E+00  0.00000000E+00  0.00000000E+00
  0.00000000E+00  0.00000000E+00  0.00000000E+00  0.00000000E+00  0.00000000E+00
  0.00000000E+00  0.00000000E+00
MxBond                                     I                1
NBond                                      I   N=           1
           0
IBond                                      I   N=           1
           0
RBond                                      R   N=           1
  0.00000000E+00
Virial Ratio                               R      2.001601990565687E+00
SCF Energy                                 R     -5.454032197571101E+01
Total Energy                               R     -5.454032197571101E+01
S**2                                       R      3.752991188531401E+00
S**2 after annihilation                    R      3.750000005690296E+00
RMS Density                                R      6.512746806850490E-09
Job Status                                 I                1
Nuclear derivative order                   I                0
External E-field                           R   N=          35
  0.00000000E+00  0.00000000E+00  0.00000000E+00  0.00000000E+00  0.00000000E+00
  0.00000000E+00  0.00000000E+00  0.00000000E+00  0.00000000E+00  0.00000000E+00
  0.00000000E+00  0.00000000E+00  0.00000000E+00  0.00000000E+00  0.00000000E+00
  0.00000000E+00  0.00000000E+00  0.00000000E+00  0.00000000E+00  0.00000000E+00
  0.00000000E+00  0.00000000E+00  0.00000000E+00  0.00000000E+00  0.00000000E+00
  0.00000000E+00  0.00000000E+00  0.00000000E+00  0.00000000E+00  0.00000000E+00
  0.00000000E+00  0.00000000E+00  0.00000000E+00  0.00000000E+00  0.00000000E+00
IOpCl                                      I                1
IROHF                                      I                0
Alpha Orbital Energies                     R   N=          22
 -1.44986010E+01 -8.42935925E-01 -3.75845381E-01 -3.75845381E-01 -3.75845381E-01
  6.28258367E-02  1.11177670E-01  1.11177670E-01  1.11177670E-01  7.38091246E-01
  7.38091246E-01  7.38091246E-01  8.95827483E-01  1.86497684E+00  1.86497684E+00
  1.86497684E+00  1.86497684E+00  1.86497684E+00  3.69847049E+00  3.69847049E+00
  3.69847049E+00  3.52032119E+01
Beta Orbital Energies                      R   N=          22
 -1.44356167E+01 -6.18587565E-01 -8.69130937E-02 -8.69130937E-02 -8.69130937E-02
  1.02771980E-01  1.59316688E-01  1.59316688E-01  1.59316688E-01  8.40854996E-01
  8.40854996E-01  8.40854996E-01  1.00213202E+00  2.04005138E+00  2.04005138E+00
  2.04005138E+00  2.04005138E+00  2.04005138E+00  3.83301778E+00  3.83301778E+00
  3.83301778E+00  3.52617706E+01
Alpha MO coefficients                      R   N=         484
  5.56504336E-01  4.66750153E-01  0.00000000E+00  0.00000000E+00  0.00000000E+00
  1.39536445E-02  0.00000000E+00  0.00000000E+00  0.00000000E+00 -6.53039337E-03
  0.00000000E+00  0.00000000E+00  0.00000000E+00  2.35813640E-03  0.00000000E+00
  0.00000000E+00  0.00000000E+00  3.30689130E-16  0.00000000E+00  0.00000000E+00
  2.10904459E-16  0.00000000E+00 -1.32882872E-01 -2.15170345E-01  0.00000000E+00
  0.00000000E+00  0.00000000E+00  6.41101121E-01  0.00000000E+00  0.00000000E+00
  0.00000000E+00  4.86283888E-01  0.00000000E+00  0.00000000E+00  0.00000000E+00
 -8.41188785E-03  0.00000000E+00  0.00000000E+00  0.00000000E+00  5.43045261E-17
  0.00000000E+00  0.00000000E+00 -6.27692672E-17  0.00000000E+00  0.00000000E+00
  0.00000000E+00  0.00000000E+00  0.00000000E+00  3.10924545E-01  0.00000000E+00
  0.00000000E+00  0.00000000E+00  4.79887081E-01  0.00000000E+00  0.00000000E+00
  0.00000000E+00  3.93684879E-01  0.00000000E+00  0.00000000E+00  0.00000000E+00
  4.63275614E-02  0.00000000E+00  0.00000000E+00  0.00000000E+00  0.00000000E+00
  0.00000000E+00  0.00000000E+00  0.00000000E+00  0.00000000E+00  3.10924545E-01
  0.00000000E+00  0.00000000E+00  0.00000000E+00  4.79887081E-01  0.00000000E+00
  0.00000000E+00  0.00000000E+00  3.93684879E-01  0.00000000E+00  0.00000000E+00
  0.00000000E+00  4.63275614E-02  0.00000000E+00  0.00000000E+00  0.00000000E+00
  0.00000000E+00  0.00000000E+00  0.00000000E+00  0.00000000E+00  0.00000000E+00
  3.10924545E-01  0.00000000E+00  0.00000000E+00  0.00000000E+00  4.79887081E-01
  0.00000000E+00  0.00000000E+00  0.00000000E+00  3.93684879E-01  0.00000000E+00
  0.00000000E+00  0.00000000E+00  4.63275614E-02  0.00000000E+00  0.00000000E+00
  0.00000000E+00  0.00000000E+00  0.00000000E+00  0.00000000E+00  0.00000000E+00
  4.02286762E-02  6.45001995E-02  0.00000000E+00  0.00000000E+00  0.00000000E+00
 -1.70136898E-01  0.00000000E+00  0.00000000E+00  0.00000000E+00 -8.65534678E-01
  0.00000000E+00  0.00000000E+00  0.00000000E+00  1.51702586E+00  0.00000000E+00
  0.00000000E+00  0.00000000E+00 -2.04044757E-16  0.00000000E+00  0.00000000E+00
  4.69812891E-17  0.00000000E+00  0.00000000E+00  0.00000000E+00  0.00000000E+00
  0.00000000E+00 -1.19065775E-01  0.00000000E+00  0.00000000E+00  0.00000000E+00
 -1.29677715E-01  0.00000000E+00  0.00000000E+00  0.00000000E+00 -4.14044329E-01
  0.00000000E+00  0.00000000E+00  0.00000000E+00  1.20637476E+00  0.00000000E+00
  0.00000000E+00  0.00000000E+00  0.00000000E+00  0.00000000E+00  0.00000000E+00
  0.00000000E+00 -1.19065775E-01  0.00000000E+00  0.00000000E+00  0.00000000E+00
 -1.29677715E-01  0.00000000E+00  0.00000000E+00  0.00000000E+00 -4.14044329E-01
  0.00000000E+00  0.00000000E+00  0.00000000E+00  1.20637476E+00  0.00000000E+00
  0.00000000E+00  0.00000000E+00  0.00000000E+00  0.00000000E+00  0.00000000E+00
  0.00000000E+00  0.00000000E+00  0.00000000E+00  0.00000000E+00 -1.19065775E-01
  0.00000000E+00  0.00000000E+00  0.00000000E+00 -1.29677715E-01  0.00000000E+00
  0.00000000E+00  0.00000000E+00 -4.14044329E-01  0.00000000E+00  0.00000000E+00
  0.00000000E+00  1.20637476E+00  0.00000000E+00  0.00000000E+00  0.00000000E+00
  0.00000000E+00  0.00000000E+00  0.00000000E+00  0.00000000E+00  0.00000000E+00
  0.00000000E+00  0.00000000E+00 -2.55514969E-01  0.00000000E+00  0.00000000E+00
  0.00000000E+00 -8.47806223E-01  0.00000000E+00  0.00000000E+00  0.00000000E+00
  1.65478901E+00  0.00000000E+00  0.00000000E+00  0.00000000E+00 -7.90492373E-01
  0.00000000E+00  0.00000000E+00  0.00000000E+00  0.00000000E+00  0.00000000E+00
  0.00000000E+00  0.00000000E+00  0.00000000E+00 -2.55514969E-01  0.00000000E+00
  0.00000000E+00  0.00000000E+00 -8.47806223E-01  0.00000000E+00  0.00000000E+00
  0.00000000E+00  1.65478901E+00  0.00000000E+00  0.00000000E+00  0.00000000E+00
 -7.90492373E-01  0.00000000E+00  0.00000000E+00  0.00000000E+00  0.00000000E+00
  0.00000000E+00  0.00000000E+00  0.00000000E+00  0.00000000E+00 -2.55514969E-01
  0.00000000E+00  0.00000000E+00  0.00000000E+00 -8.47806223E-01  0.00000000E+00
  0.00000000E+00  0.00000000E+00  1.65478901E+00  0.00000000E+00  0.00000000E+00
  0.00000000E+00 -7.90492373E-01  0.00000000E+00  0.00000000E+00  0.00000000E+00
  0.00000000E+00  0.00000000E+00  0.00000000E+00  0.00000000E+00  1.23650592E-01
  2.49332324E-01  0.00000000E+00  0.00000000E+00  0.00000000E+00 -1.84248099E+00
  0.00000000E+00  0.00000000E+00  0.00000000E+00  2.52669103E+00  0.00000000E+00
  0.00000000E+00  0.00000000E+00 -1.11440809E+00  0.00000000E+00  0.00000000E+00
  0.00000000E+00  1.96566031E-16  0.00000000E+00  0.00000000E+00  9.54945695E-16
  0.00000000E+00  0.00000000E+00  0.00000000E+00  0.00000000E+00  0.00000000E+00
  0.00000000E+00  0.00000000E+00  0.00000000E+00  0.00000000E+00  0.00000000E+00
  0.00000000E+00  0.00000000E+00  0.00000000E+00  0.00000000E+00  0.00000000E+00
  0.00000000E+00  0.00000000E+00  0.00000000E+00  0.00000000E+00  0.00000000E+00
  1.00000000E+00  0.00000000E+00  0.00000000E+00  0.00000000E+00  0.00000000E+00
  0.00000000E+00  0.00000000E+00  0.00000000E+00  0.00000000E+00  0.00000000E+00
  0.00000000E+00  0.00000000E+00  0.00000000E+00  0.00000000E+00  0.00000000E+00
  0.00000000E+00  0.00000000E+00  0.00000000E+00  0.00000000E+00  0.00000000E+00
  0.00000000E+00  0.00000000E+00  0.00000000E+00  0.00000000E+00  1.00000000E+00
  0.00000000E+00  0.00000000E+00  0.00000000E+00  0.00000000E+00  0.00000000E+00
  0.00000000E+00  0.00000000E+00  0.00000000E+00  0.00000000E+00  0.00000000E+00
  0.00000000E+00  0.00000000E+00  0.00000000E+00  0.00000000E+00  0.00000000E+00
  0.00000000E+00  0.00000000E+00  0.00000000E+00  1.00000000E+00  0.00000000E+00
  0.00000000E+00  0.00000000E+00 -1.92208618E-16 -3.90513003E-16  0.00000000E+00
  0.00000000E+00  0.00000000E+00  3.26548619E-15  0.00000000E+00  0.00000000E+00
  0.00000000E+00 -5.15285319E-15  0.00000000E+00  0.00000000E+00  0.00000000E+00
  2.54279013E-15  0.00000000E+00  0.00000000E+00  0.00000000E+00  6.70391047E-01
  0.00000000E+00  0.00000000E+00  7.42007981E-01  0.00000000E+00  2.84284141E-17
  7.15469486E-17  0.00000000E+00  0.00000000E+00  0.00000000E+00 -4.82615510E-16
  0.00000000E+00  0.00000000E+00  0.00000000E+00  3.25170270E-16  0.00000000E+00
  0.00000000E+00  0.00000000E+00  1.02694351E-16  0.00000000E+00  0.00000000E+00
  0.00000000E+00  7.42007981E-01  0.00000000E+00  0.00000000E+00 -6.70391047E-01
  0.00000000E+00  0.00000000E+00  0.00000000E+00  0.00000000E+00 -1.29363367E+00
  0.00000000E+00  0.00000000E+00  0.00000000E+00  1.56189609E+00  0.00000000E+00
  0.00000000E+00  0.00000000E+00 -8.77491274E-01  0.00000000E+00  0.00000000E+00
  0.00000000E+00  3.05948236E-01  0.00000000E+00  0.00000000E+00  0.00000000E+00
  0.00000000E+00  0.00000000E+00  0.00000000E+00  0.00000000E+00  0.00000000E+00
 -1.29363367E+00  0.00000000E+00  0.00000000E+00  0.00000000E+00  1.56189609E+00
  0.00000000E+00  0.00000000E+00  0.00000000E+00 -8.77491274E-01  0.00000000E+00
  0.00000000E+00  0.00000000E+00  3.05948236E-01  0.00000000E+00  0.00000000E+00
  0.00000000E+00  0.00000000E+00  0.00000000E+00  0.00000000E+00  0.00000000E+00
  0.00000000E+00  0.00000000E+00  0.00000000E+00  0.00000000E+00 -1.29363367E+00
  0.00000000E+00  0.00000000E+00  0.00000000E+00  1.56189609E+00  0.00000000E+00
  0.00000000E+00  0.00000000E+00 -8.77491274E-01  0.00000000E+00  0.00000000E+00
  0.00000000E+00  3.05948236E-01  0.00000000E+00  0.00000000E+00  0.00000000E+00
  0.00000000E+00  0.00000000E+00 -2.14460991E+00  2.25370521E+00  0.00000000E+00
  0.00000000E+00  0.00000000E+00 -3.24945708E-01  0.00000000E+00  0.00000000E+00
  0.00000000E+00  2.77458805E-01  0.00000000E+00  0.00000000E+00  0.00000000E+00
 -1.04750670E-01  0.00000000E+00  0.00000000E+00  0.00000000E+00 -3.77642289E-17
  0.00000000E+00  0.00000000E+00 -1.41197227E-18  0.00000000E+00
Beta MO coefficients                       R   N=         484
  5.58745915E-01  4.66148277E-01  0.00000000E+00  0.00000000E+00  0.00000000E+00
  9.03682645E-03  0.00000000E+00  0.00000000E+00  0.00000000E+00 -4.36902947E-03
  0.00000000E+00  0.00000000E+00  0.00000000E+00  1.53493525E-03  0.00000000E+00
  0.00000000E+00  0.00000000E+00  9.38783273E-17  0.00000000E+00  0.00000000E+00
 -2.34910548E-16  0.00000000E+00 -1.26788178E-01 -2.01526898E-01  0.00000000E+00
  0.00000000E+00  0.00000000E+00  5.75352675E-01  0.00000000E+00  0.00000000E+00
  0.00000000E+00  5.24811258E-01  0.00000000E+00  0.00000000E+00  0.00000000E+00
  2.54605023E-02  0.00000000E+00  0.00000000E+00  0.00000000E+00  1.33219052E-16
  0.00000000E+00  0.00000000E+00 -5.43951767E-17  0.00000000E+00  0.00000000E+00
  0.00000000E+00  0.00000000E+00  0.00000000E+00  2.57253319E-01  0.00000000E+00
  0.00000000E+00  0.00000000E+00  3.81630527E-01  0.00000000E+00  0.00000000E+00
  0.00000000E+00  4.19641432E-01  0.00000000E+00  0.00000000E+00  0.00000000E+00
  2.36200949E-01  0.00000000E+00  0.00000000E+00  0.00000000E+00  0.00000000E+00
  0.00000000E+00  0.00000000E+00  0.00000000E+00  0.00000000E+00  2.57253319E-01
  0.00000000E+00  0.00000000E+00  0.00000000E+00  3.81630527E-01  0.00000000E+00
  0.00000000E+00  0.00000000E+00  4.19641432E-01  0.00000000E+00  0.00000000E+00
  0.00000000E+00  2.36200949E-01  0.00000000E+00  0.00000000E+00  0.00000000E+00
  0.00000000E+00  0.00000000E+00  0.00000000E+00  0.00000000E+00  0.00000000E+00
  2.57253319E-01  0.00000000E+00  0.00000000E+00  0.00000000E+00  3.81630527E-01
  0.00000000E+00  0.00000000E+00  0.00000000E+00  4.19641432E-01  0.00000000E+00
  0.00000000E+00  0.00000000E+00  2.36200949E-01  0.00000000E+00  0.00000000E+00
  0.00000000E+00  0.00000000E+00  0.00000000E+00  0.00000000E+00  0.00000000E+00
  4.19776108E-02  6.50121811E-02  0.00000000E+00  0.00000000E+00  0.00000000E+00
 -1.38051829E-01  0.00000000E+00  0.00000000E+00  0.00000000E+00 -9.68020034E-01
  0.00000000E+00  0.00000000E+00  0.00000000E+00  1.55144019E+00  0.00000000E+00
  0.00000000E+00  0.00000000E+00  8.45173036E-18  0.00000000E+00  0.00000000E+00
 -1.29223202E-17  0.00000000E+00  0.00000000E+00  0.00000000E+00  0.00000000E+00
  0.00000000E+00 -1.59396657E-01  0.00000000E+00  0.00000000E+00  0.00000000E+00
 -1.71001764E-01  0.00000000E+00  0.00000000E+00  0.00000000E+00 -5.91309740E-01
  0.00000000E+00  0.00000000E+00  0.00000000E+00  1.22102936E+00  0.00000000E+00
  0.00000000E+00  0.00000000E+00  0.00000000E+00  0.00000000E+00  0.00000000E+00
  0.00000000E+00 -1.59396657E-01  0.00000000E+00  0.00000000E+00  0.00000000E+00
 -1.71001764E-01  0.00000000E+00  0.00000000E+00  0.00000000E+00 -5.91309740E-01
  0.00000000E+00  0.00000000E+00  0.00000000E+00  1.22102936E+00  0.00000000E+00
  0.00000000E+00  0.00000000E+00  0.00000000E+00  0.00000000E+00  0.00000000E+00
  0.00000000E+00  0.00000000E+00  0.00000000E+00  0.00000000E+00 -1.59396657E-01
  0.00000000E+00  0.00000000E+00  0.00000000E+00 -1.71001764E-01  0.00000000E+00
  0.00000000E+00  0.00000000E+00 -5.91309740E-01  0.00000000E+00  0.00000000E+00
  0.00000000E+00  1.22102936E+00  0.00000000E+00  0.00000000E+00  0.00000000E+00
  0.00000000E+00  0.00000000E+00  0.00000000E+00  0.00000000E+00  0.00000000E+00
  0.00000000E+00  0.00000000E+00 -2.68618128E-01  0.00000000E+00  0.00000000E+00
  0.00000000E+00 -9.13282900E-01  0.00000000E+00  0.00000000E+00  0.00000000E+00
  1.60450409E+00  0.00000000E+00  0.00000000E+00  0.00000000E+00 -7.35241058E-01
  0.00000000E+00  0.00000000E+00  0.00000000E+00  0.00000000E+00  0.00000000E+00
  0.00000000E+00  0.00000000E+00 -2.68618128E-01  0.00000000E+00  0.00000000E+00
  0.00000000E+00 -9.13282900E-01  0.00000000E+00  0.00000000E+00  0.00000000E+00
  1.60450409E+00  0.00000000E+00  0.00000000E+00  0.00000000E+00 -7.35241058E-01
  0.00000000E+00  0.00000000E+00  0.00000000E+00  0.00000000E+00  0.00000000E+00
  0.00000000E+00  0.00000000E+00  0.00000000E+00  0.00000000E+00  0.00000000E+00
 -2.68618128E-01  0.00000000E+00  0.00000000E+00  0.00000000E+00 -9.13282900E-01
  0.00000000E+00  0.00000000E+00  0.00000000E+00  1.60450409E+00  0.00000000E+00
  0.00000000E+00  0.00000000E+00 -7.35241058E-01  0.00000000E+00  0.00000000E+00
  0.00000000E+00  0.00000000E+00  0.00000000E+00  0.00000000E+00  1.28707420E-01
  2.56501238E-01  0.00000000E+00  0.00000000E+00  0.00000000E+00 -1.86657566E+00
  0.00000000E+00  0.00000000E+00  0.00000000E+00  2.48136680E+00  0.00000000E+00
  0.00000000E+00  0.00000000E+00 -1.06570145E+00  0.00000000E+00  0.00000000E+00
  0.00000000E+00  3.06715036E-16  0.00000000E+00  0.00000000E+00 -6.15780439E-16
  0.00000000E+00  0.00000000E+00  0.00000000E+00  0.00000000E+00  0.00000000E+00
  0.00000000E+00  0.00000000E+00  0.00000000E+00  0.00000000E+00  0.00000000E+00
  0.00000000E+00  0.00000000E+00  0.00000000E+00  0.00000000E+00  0.00000000E+00
  0.00000000E+00  0.00000000E+00  0.00000000E+00  0.00000000E+00  0.00000000E+00
  1.00000000E+00  0.00000000E+00  0.00000000E+00  0.00000000E+00  0.00000000E+00
  0.00000000E+00  0.00000000E+00  0.00000000E+00  0.00000000E+00  0.00000000E+00
  0.00000000E+00  0.00000000E+00  0.00000000E+00  0.00000000E+00  0.00000000E+00
  0.00000000E+00  0.00000000E+00  0.00000000E+00  0.00000000E+00  0.00000000E+00
  0.00000000E+00  0.00000000E+00  0.00000000E+00  0.00000000E+00  1.00000000E+00
  0.00000000E+00  0.00000000E+00  0.00000000E+00  0.00000000E+00  0.00000000E+00
  0.00000000E+00  0.00000000E+00  0.00000000E+00  0.00000000E+00  0.00000000E+00
  0.00000000E+00  0.00000000E+00  0.00000000E+00  0.00000000E+00  0.00000000E+00
  0.00000000E+00  0.00000000E+00  0.00000000E+00  1.00000000E+00  0.00000000E+00
  0.00000000E+00  0.00000000E+00 -2.10096717E-16 -4.06134368E-16  0.00000000E+00
  0.00000000E+00  0.00000000E+00  2.48949049E-15  0.00000000E+00  0.00000000E+00
  0.00000000E+00 -2.29361015E-15  0.00000000E+00  0.00000000E+00  0.00000000E+00
  1.09581980E-15  0.00000000E+00  0.00000000E+00  0.00000000E+00  9.61588028E-01
  0.00000000E+00  0.00000000E+00 -2.74496748E-01  0.00000000E+00  1.06587996E-16
  1.47362943E-16  0.00000000E+00  0.00000000E+00  0.00000000E+00 -6.12449533E-16
  0.00000000E+00  0.00000000E+00  0.00000000E+00  7.45126204E-16  0.00000000E+00
  0.00000000E+00  0.00000000E+00 -3.41422075E-16  0.00000000E+00  0.00000000E+00
  0.00000000E+00  2.74496748E-01  0.00000000E+00  0.00000000E+00  9.61588028E-01
  0.00000000E+00  0.00000000E+00  0.00000000E+00  0.00000000E+00 -1.29841613E+00
  0.00000000E+00  0.00000000E+00  0.00000000E+00  1.54804186E+00  0.00000000E+00
  0.00000000E+00  0.00000000E+00 -8.57063934E-01  0.00000000E+00  0.00000000E+00
  0.00000000E+00  2.97801624E-01  0.00000000E+00  0.00000000E+00  0.00000000E+00
  0.00000000E+00  0.00000000E+00  0.00000000E+00  0.00000000E+00  0.00000000E+00
 -1.29841613E+00  0.00000000E+00  0.00000000E+00  0.00000000E+00  1.54804186E+00
  0.00000000E+00  0.00000000E+00  0.00000000E+00 -8.57063934E-01  0.00000000E+00
  0.00000000E+00  0.00000000E+00  2.97801624E-01  0.00000000E+00  0.00000000E+00
  0.00000000E+00  0.00000000E+00  0.00000000E+00  0.00000000E+00  0.00000000E+00
  0.00000000E+00  0.00000000E+00  0.00000000E+00  0.00000000E+00 -1.29841613E+00
  0.00000000E+00  0.00000000E+00  0.00000000E+00  1.54804186E+00  0.00000000E+00
  0.00000000E+00  0.00000000E+00 -8.57063934E-01  0.00000000E+00  0.00000000E+00
  0.00000000E+00  2.97801624E-01  0.00000000E+00  0.00000000E+00  0.00000000E+00
  0.00000000E+00  0.00000000E+00 -2.14406494E+00  2.25427178E+00  0.00000000E+00
  0.00000000E+00  0.00000000E+00 -3.25887188E-01  0.00000000E+00  0.00000000E+00
  0.00000000E+00  2.77715692E-01  0.00000000E+00  0.00000000E+00  0.00000000E+00
 -1.04809577E-01  0.00000000E+00  0.00000000E+00  0.00000000E+00 -3.73926300E-17
  0.00000000E+00  0.00000000E+00 -1.36252827E-18  0.00000000E+00
Orthonormal basis                          R   N=         484
  2.37258796E-01  2.48792276E-01  0.00000000E+00  0.00000000E+00  0.00000000E+00
  3.14136421E-01  0.00000000E+00  0.00000000E+00  0.00000000E+00  3.10357360E-01
  0.00000000E+00  0.00000000E+00  0.00000000E+00  2.47131997E-01  0.00000000E+00
  0.00000000E+00  0.00000000E+00 -2.08603220E-17  0.00000000E+00  0.00000000E+00
  0.00000000E+00  0.00000000E+00  4.42543018E-01  4.32319358E-01  0.00000000E+00
  0.00000000E+00  0.00000000E+00 -9.06604449E-02  0.00000000E+00  0.00000000E+00
  0.00000000E+00 -3.14228116E-01  0.00000000E+00  0.00000000E+00  0.00000000E+00
 -3.50226540E-01  0.00000000E+00  0.00000000E+00  0.00000000E+00  1.59340170E-17
  0.00000000E+00  0.00000000E+00  0.00000000E+00  0.00000000E+00  0.00000000E+00
  0.00000000E+00  0.00000000E+00  0.00000000E+00  0.00000000E+00  0.00000000E+00
  0.00000000E+00  0.00000000E+00  0.00000000E+00  0.00000000E+00  0.00000000E+00
  0.00000000E+00  0.00000000E+00  0.00000000E+00  0.00000000E+00  0.00000000E+00
  0.00000000E+00  0.00000000E+00  0.00000000E+00  0.00000000E+00  1.00000000E+00
  0.00000000E+00  3.26663306E-17  2.90298169E-17  0.00000000E+00  0.00000000E+00
  0.00000000E+00 -1.18639685E-16  0.00000000E+00  0.00000000E+00  0.00000000E+00
  5.66571983E-17  0.00000000E+00  0.00000000E+00  0.00000000E+00  1.00249567E-16
  0.00000000E+00  0.00000000E+00  0.00000000E+00  1.00000000E+00  0.00000000E+00
  0.00000000E+00  0.00000000E+00  0.00000000E+00 -3.08427338E-01 -1.57173734E-01
  0.00000000E+00  0.00000000E+00  0.00000000E+00  9.94219717E-01  0.00000000E+00
  0.00000000E+00  0.00000000E+00  8.82862496E-02  0.00000000E+00  0.00000000E+00
  0.00000000E+00 -9.20318709E-01  0.00000000E+00  0.00000000E+00  0.00000000E+00
  2.17796360E-16  0.00000000E+00  0.00000000E+00  0.00000000E+00  0.00000000E+00
  1.96171304E+00 -1.92434664E+00  0.00000000E+00  0.00000000E+00  0.00000000E+00
 -3.88719623E-01  0.00000000E+00  0.00000000E+00  0.00000000E+00  9.59313419E-01
  0.00000000E+00  0.00000000E+00  0.00000000E+00 -6.56693937E-01  0.00000000E+00
  0.00000000E+00  0.00000000E+00 -4.85145826E-17  0.00000000E+00  0.00000000E+00
  0.00000000E+00  0.00000000E+00 -8.64888929E-01  1.19710353E+00  0.00000000E+00
  0.00000000E+00  0.00000000E+00 -1.64134123E+00  0.00000000E+00  0.00000000E+00
  0.00000000E+00  2.51469247E+00  0.00000000E+00  0.00000000E+00  0.00000000E+00
 -1.44649769E+00  0.00000000E+00  0.00000000E+00  0.00000000E+00 -1.97272031E-16
  0.00000000E+00  0.00000000E+00  0.00000000E+00  0.00000000E+00  0.00000000E+00
  0.00000000E+00  0.00000000E+00  0.00000000E+00  0.00000000E+00  0.00000000E+00
  0.00000000E+00  0.00000000E+00  0.00000000E+00  0.00000000E+00  0.00000000E+00
  0.00000000E+00  0.00000000E+00  0.00000000E+00  0.00000000E+00  0.00000000E+00
  0.00000000E+00  0.00000000E+00  0.00000000E+00  0.00000000E+00  0.00000000E+00
  1.00000000E+00  0.00000000E+00  0.00000000E+00  0.00000000E+00  0.00000000E+00
  0.00000000E+00  0.00000000E+00  0.00000000E+00  0.00000000E+00  0.00000000E+00
  0.00000000E+00  0.00000000E+00  0.00000000E+00  0.00000000E+00  0.00000000E+00
  0.00000000E+00  0.00000000E+00  0.00000000E+00  0.00000000E+00  1.00000000E+00
  0.00000000E+00  0.00000000E+00  0.00000000E+00  0.00000000E+00  0.00000000E+00
  0.00000000E+00  0.00000000E+00  0.00000000E+00  0.00000000E+00  0.00000000E+00
  0.00000000E+00  0.00000000E+00  0.00000000E+00  0.00000000E+00  0.00000000E+00
  0.00000000E+00  0.00000000E+00  0.00000000E+00  0.00000000E+00  0.00000000E+00
  0.00000000E+00  0.00000000E+00  1.00000000E+00  0.00000000E+00  0.00000000E+00
  0.00000000E+00  0.00000000E+00  0.00000000E+00  0.00000000E+00  2.60374247E-01
  0.00000000E+00  0.00000000E+00  0.00000000E+00  3.75569254E-01  0.00000000E+00
  0.00000000E+00  0.00000000E+00  3.86371087E-01  0.00000000E+00  0.00000000E+00
  0.00000000E+00  2.87220663E-01  0.00000000E+00  0.00000000E+00  0.00000000E+00
  0.00000000E+00  0.00000000E+00  0.00000000E+00  0.00000000E+00  0.00000000E+00
  0.00000000E+00  6.01123738E-01  0.00000000E+00  0.00000000E+00  0.00000000E+00
  3.13723242E-01  0.00000000E+00  0.00000000E+00  0.00000000E+00 -2.96391563E-01