fubar                                                                   
SP        UPBE1PBE                                                    6-311+G(d,p)        
Number of atoms                            I                1
Info1-9                                    I   N=           9
          11          10           0           0           0         110
           1          18       -1302
Full Title                                 C   N=           1
fubar       
Route                                      C   N=           3
#PBE1PBE/6-311+G(d,p) scf=tight     
Charge                                     I                0
Multiplicity                               I                3
Number of electrons                        I                8
Number of alpha electrons                  I                5
Number of beta electrons                   I                3
Number of basis functions                  I               22
Number of independent functions            I               22
Number of point charges in /Mol/           I                0
Number of translation vectors              I                0
Atomic numbers                             I   N=           1
           8
Nuclear charges                            R   N=           1
  8.00000000E+00
Current cartesian coordinates              R   N=           3
  0.00000000E+00  0.00000000E+00  0.00000000E+00
Number of symbols in /Mol/                 I                0
Int Atom Types                             I   N=           1
           0
Force Field                                I                0
Atom Types                                 C   N=           1
            
MM charges                                 R   N=           1
  0.00000000E+00
Integer atomic weights                     I   N=           1
          16
Real atomic weights                        R   N=           1
  1.59949146E+01
Atom fragment info                         I   N=           1
           0
Atom residue num                           I   N=           1
           0
Nuclear spins                              I   N=           1
           0
Nuclear ZEff                               R   N=           1
 -5.60000000E+00
Nuclear ZNuc                               R   N=           1
  8.00000000E+00
Nuclear QMom                               R   N=           1
  0.00000000E+00
Nuclear GFac                               R   N=           1
  0.00000000E+00
MicOpt                                     I   N=           1
          -1
Number of residues                         I                0
Number of secondary structures             I                0
SymInf integers                            I   N=          26
           1           8           1           1           1           1
          -1          -1          -1           1          -1          -1
          -1           1          -1          -1          -1          -1
           1           1           1          -1           1           1
           1          -1
RotTr to input orientation                 R   N=          12
  0.00000000E+00  0.00000000E+00 -1.00000000E+00  0.00000000E+00  1.00000000E+00
  0.00000000E+00  1.00000000E+00  0.00000000E+00  0.00000000E+00  0.00000000E+00
  0.00000000E+00  0.00000000E+00
Number of contracted shells                I                6
Number of primitive shells                 I               13
Pure/Cartesian d shells                    I                0
Pure/Cartesian f shells                    I                0
Highest angular momentum                   I                2
Largest degree of contraction              I                6
Shell types                                I   N=           6
           0          -1          -1          -1          -1          -2
Number of primitives per shell             I   N=           6
           6           3           1           1           1           1
Shell to atom map                          I   N=           6
           1           1           1           1           1           1
Primitive exponents                        R   N=          13
  8.58850000E+03  1.29723000E+03  2.99296000E+02  8.73771000E+01  2.56789000E+01
  3.74004000E+00  4.21175000E+01  9.62837000E+00  2.85332000E+00  9.05661000E-01
  2.55611000E-01  8.45000000E-02  1.29200000E+00
Contraction coefficients                   R   N=          13
  1.89515008E-03  1.43859006E-02  7.07320031E-02  2.40001011E-01  5.94797026E-01
  2.80802012E-01  1.13889012E-01  9.20811101E-01 -3.27447036E-03  1.00000000E+00
  1.00000000E+00  1.00000000E+00  1.00000000E+00
P(S=P) Contraction coefficients            R   N=          13
  0.00000000E+00  0.00000000E+00  0.00000000E+00  0.00000000E+00  0.00000000E+00
  0.00000000E+00  3.65113974E-02  2.37152983E-01  8.19701941E-01  1.00000000E+00
  1.00000000E+00  1.00000000E+00  0.00000000E+00
Coordinates of each shell                  R   N=          18
  0.00000000E+00  0.00000000E+00  0.00000000E+00  0.00000000E+00  0.00000000E+00
  0.00000000E+00  0.00000000E+00  0.00000000E+00  0.00000000E+00  0.00000000E+00
  0.00000000E+00  0.00000000E+00  0.00000000E+00  0.00000000E+00  0.00000000E+00
  0.00000000E+00  0.00000000E+00  0.00000000E+00
Num ILSW                                   I              100
ILSW                                       I   N=         100
           1           0           0           0           2           0
           0           0           0           0        1009          -1
           5           0           0           0           0           0
           0           0           0           0           0           0
           1           0           0           0           0           0
           0           0      100000           0          -1           0
           0           0           0           0           0           0
           0           0           0           1           0           0
           0 -2000000000           1           0           0           0
           0           1           4          52           0           0
           0           0          13           0           0           0
           0           0           0           1           0           1
           0           0           0           0           0           0
           0           0           0           0           0           0
           0           0           0           0           0           0
           0           0           0           0           0           0
           0           0           0           0
Num RLSW                                   I               52
RLSW                                       R   N=          52
  7.50000000E-01  7.50000000E-01  1.00000000E+00  1.00000000E+00  2.50000000E-01
  0.00000000E+00  0.00000000E+00  1.00000000E+00  0.00000000E+00  0.00000000E+00
  0.00000000E+00  0.00000000E+00  1.00000000E+00  0.00000000E+00  0.00000000E+00
  0.00000000E+00  0.00000000E+00  1.00000000E+00  0.00000000E+00  0.00000000E+00
  0.00000000E+00  0.00000000E+00  1.00000000E+00  0.00000000E+00  0.00000000E+00
  0.00000000E+00  0.00000000E+00  1.00000000E+00  0.00000000E+00  0.00000000E+00
  0.00000000E+00  0.00000000E+00  1.00000000E+00  0.00000000E+00  0.00000000E+00
  0.00000000E+00  0.00000000E+00  0.00000000E+00  1.00000000E+00  1.00000000E+00
  0.00000000E+00  1.00000000E+00  0.00000000E+00  0.00000000E+00  0.00000000E+00
  0.00000000E+00  0.00000000E+00  0.00000000E+00  0.00000000E+00  0.00000000E+00
  0.00000000E+00  0.00000000E+00
MxBond                                     I                1
NBond                                      I   N=           1
           0
IBond                                      I   N=           1
           0
RBond                                      R   N=           1
  0.00000000E+00
Virial Ratio                               R      2.001715083651624E+00
SCF Energy                                 R     -7.501166568061780E+01
Total Energy                               R     -7.501166568061780E+01
S**2                                       R      2.003313200312375E+00
S**2 after annihilation                    R      2.000003852236583E+00
RMS Density                                R      9.605833843514834E-09
Job Status                                 I                1
Nuclear derivative order                   I                0
External E-field                           R   N=          35
  0.00000000E+00  0.00000000E+00  0.00000000E+00  0.00000000E+00  0.00000000E+00
  0.00000000E+00  0.00000000E+00  0.00000000E+00  0.00000000E+00  0.00000000E+00
  0.00000000E+00  0.00000000E+00  0.00000000E+00  0.00000000E+00  0.00000000E+00
  0.00000000E+00  0.00000000E+00  0.00000000E+00  0.00000000E+00  0.00000000E+00
  0.00000000E+00  0.00000000E+00  0.00000000E+00  0.00000000E+00  0.00000000E+00
  0.00000000E+00  0.00000000E+00  0.00000000E+00  0.00000000E+00  0.00000000E+00
  0.00000000E+00  0.00000000E+00  0.00000000E+00  0.00000000E+00  0.00000000E+00
IOpCl                                      I                1
IROHF                                      I                0
Alpha Orbital Energies                     R   N=          22
 -1.93512190E+01 -1.05393609E+00 -4.82728459E-01 -4.82728459E-01 -4.01435835E-01
  9.30845126E-02  1.49796574E-01  1.49796574E-01  1.61936201E-01  9.43853734E-01
  9.43853734E-01  9.85678643E-01  1.16915236E+00  2.64425181E+00  2.64425181E+00
  2.70743682E+00  2.70743682E+00  2.72957822E+00  4.80847586E+00  4.80847586E+00
  4.87969651E+00  4.97162654E+01
Beta Orbital Energies                      R   N=          22
 -1.92965853E+01 -8.76051945E-01 -3.46652337E-01 -1.60427067E-01 -1.60427067E-01
  1.15992763E-01  1.68478308E-01  1.88160938E-01  1.88160938E-01  1.01098466E+00
  1.04500637E+00  1.04500637E+00  1.24858535E+00  2.80961379E+00  2.80961379E+00
  2.81953391E+00  2.84517413E+00  2.84517415E+00  4.92223695E+00  4.95682516E+00
  4.95682516E+00  4.97660236E+01
Alpha MO coefficients                      R   N=         484
  5.50918930E-01  4.70178942E-01  0.00000000E+00  0.00000000E+00  0.00000000E+00
  1.25567131E-02  0.00000000E+00  0.00000000E+00  0.00000000E+00 -5.64949179E-03
  0.00000000E+00  0.00000000E+00  0.00000000E+00  2.12443152E-03  0.00000000E+00
  0.00000000E+00  0.00000000E+00  1.68218352E-04  0.00000000E+00  0.00000000E+00
  2.91362733E-04  0.00000000E+00 -1.32380828E-01 -2.15742530E-01  0.00000000E+00
  0.00000000E+00  0.00000000E+00  6.58410534E-01  0.00000000E+00  0.00000000E+00
  0.00000000E+00  4.74487462E-01  0.00000000E+00  0.00000000E+00  0.00000000E+00
 -1.25196213E-02  0.00000000E+00  0.00000000E+00  0.00000000E+00  8.60953725E-03
  0.00000000E+00  0.00000000E+00  1.49121559E-02  0.00000000E+00  0.00000000E+00
  0.00000000E+00  0.00000000E+00  0.00000000E+00  3.27088857E-01  0.00000000E+00
  0.00000000E+00  0.00000000E+00  4.92104058E-01  0.00000000E+00  0.00000000E+00
  0.00000000E+00  3.78861840E-01  0.00000000E+00  0.00000000E+00  0.00000000E+00
  3.42767312E-02  0.00000000E+00  0.00000000E+00  0.00000000E+00  0.00000000E+00
  0.00000000E+00  0.00000000E+00  0.00000000E+00  3.27088857E-01  0.00000000E+00
  0.00000000E+00  0.00000000E+00  4.92104058E-01  0.00000000E+00  0.00000000E+00
  0.00000000E+00  3.78861840E-01  0.00000000E+00  0.00000000E+00  0.00000000E+00
  3.42767312E-02  0.00000000E+00  0.00000000E+00  0.00000000E+00  0.00000000E+00
  0.00000000E+00  0.00000000E+00  0.00000000E+00  0.00000000E+00  0.00000000E+00
  0.00000000E+00  3.18801439E-01  0.00000000E+00  0.00000000E+00  0.00000000E+00
  4.71455968E-01  0.00000000E+00  0.00000000E+00  0.00000000E+00  3.96241407E-01
  0.00000000E+00  0.00000000E+00  0.00000000E+00  5.97656413E-02  0.00000000E+00
  0.00000000E+00  0.00000000E+00  0.00000000E+00  0.00000000E+00  0.00000000E+00
  3.91202504E-02  6.32858882E-02  0.00000000E+00  0.00000000E+00  0.00000000E+00
 -1.70561918E-01  0.00000000E+00  0.00000000E+00  0.00000000E+00 -8.91802002E-01
  0.00000000E+00  0.00000000E+00  0.00000000E+00  1.54708737E+00  0.00000000E+00
  0.00000000E+00  0.00000000E+00 -2.30468548E-03  0.00000000E+00  0.00000000E+00
 -3.99183235E-03  0.00000000E+00  0.00000000E+00  0.00000000E+00 -1.19218578E-01
  0.00000000E+00  0.00000000E+00  0.00000000E+00 -1.27705722E-01  0.00000000E+00
  0.00000000E+00  0.00000000E+00 -4.14058254E-01  0.00000000E+00  0.00000000E+00
  0.00000000E+00  1.21781883E+00  0.00000000E+00  0.00000000E+00  0.00000000E+00
  0.00000000E+00  0.00000000E+00  0.00000000E+00  0.00000000E+00  0.00000000E+00
  0.00000000E+00  0.00000000E+00  0.00000000E+00 -1.19218578E-01  0.00000000E+00
  0.00000000E+00  0.00000000E+00 -1.27705722E-01  0.00000000E+00  0.00000000E+00
  0.00000000E+00 -4.14058254E-01  0.00000000E+00  0.00000000E+00  0.00000000E+00
  1.21781883E+00  0.00000000E+00  0.00000000E+00  0.00000000E+00  0.00000000E+00
  0.00000000E+00  0.00000000E+00  0.00000000E+00  0.00000000E+00 -1.25446302E-01
  0.00000000E+00  0.00000000E+00  0.00000000E+00 -1.29874653E-01  0.00000000E+00
  0.00000000E+00  0.00000000E+00 -4.56107915E-01  0.00000000E+00  0.00000000E+00
  0.00000000E+00  1.23056286E+00  0.00000000E+00  0.00000000E+00  0.00000000E+00
  0.00000000E+00  0.00000000E+00  0.00000000E+00  0.00000000E+00  0.00000000E+00
 -2.58518895E-01  0.00000000E+00  0.00000000E+00  0.00000000E+00 -8.00026956E-01
  0.00000000E+00  0.00000000E+00  0.00000000E+00  1.66338964E+00  0.00000000E+00
  0.00000000E+00  0.00000000E+00 -8.28419495E-01  0.00000000E+00  0.00000000E+00
  0.00000000E+00  0.00000000E+00  0.00000000E+00  0.00000000E+00  0.00000000E+00
  0.00000000E+00  0.00000000E+00  0.00000000E+00  0.00000000E+00 -2.58518895E-01
  0.00000000E+00  0.00000000E+00  0.00000000E+00 -8.00026956E-01  0.00000000E+00
  0.00000000E+00  0.00000000E+00  1.66338964E+00  0.00000000E+00  0.00000000E+00
  0.00000000E+00 -8.28419495E-01  0.00000000E+00  0.00000000E+00  0.00000000E+00
  0.00000000E+00  0.00000000E+00  0.00000000E+00  0.00000000E+00  0.00000000E+00
 -2.61895875E-01  0.00000000E+00  0.00000000E+00  0.00000000E+00 -8.17315993E-01
  0.00000000E+00  0.00000000E+00  0.00000000E+00  1.65170754E+00  0.00000000E+00
  0.00000000E+00  0.00000000E+00 -8.09069565E-01  0.00000000E+00  0.00000000E+00
  0.00000000E+00  0.00000000E+00  0.00000000E+00  0.00000000E+00  1.21609794E-01
  2.42233127E-01  0.00000000E+00  0.00000000E+00  0.00000000E+00 -1.78385876E+00
  0.00000000E+00  0.00000000E+00  0.00000000E+00  2.52346083E+00  0.00000000E+00
  0.00000000E+00  0.00000000E+00 -1.15479639E+00  0.00000000E+00  0.00000000E+00
  0.00000000E+00 -4.08558896E-03  0.00000000E+00  0.00000000E+00 -7.07644766E-03
  0.00000000E+00  0.00000000E+00  0.00000000E+00  0.00000000E+00  0.00000000E+00
  0.00000000E+00  0.00000000E+00  0.00000000E+00  0.00000000E+00  0.00000000E+00
  0.00000000E+00  0.00000000E+00  0.00000000E+00  0.00000000E+00  0.00000000E+00
  0.00000000E+00  0.00000000E+00  0.00000000E+00  0.00000000E+00  1.00000000E+00
  0.00000000E+00  0.00000000E+00  0.00000000E+00  4.43307544E-16  6.88550131E-16
  0.00000000E+00  0.00000000E+00  0.00000000E+00 -5.19570159E-15  0.00000000E+00
  0.00000000E+00  0.00000000E+00  5.42386442E-15  0.00000000E+00  0.00000000E+00
  0.00000000E+00 -1.92446508E-15  0.00000000E+00  0.00000000E+00  0.00000000E+00
  8.66025404E-01  0.00000000E+00  0.00000000E+00 -5.00000000E-01  0.00000000E+00
  0.00000000E+00  0.00000000E+00  0.00000000E+00  0.00000000E+00  0.00000000E+00
  0.00000000E+00  0.00000000E+00  0.00000000E+00  0.00000000E+00  0.00000000E+00
  0.00000000E+00  0.00000000E+00  0.00000000E+00  0.00000000E+00  0.00000000E+00
  0.00000000E+00  0.00000000E+00  0.00000000E+00  0.00000000E+00  0.00000000E+00
  0.00000000E+00  1.00000000E+00  0.00000000E+00  0.00000000E+00  0.00000000E+00
  0.00000000E+00  0.00000000E+00  0.00000000E+00  0.00000000E+00  0.00000000E+00
  0.00000000E+00  0.00000000E+00  0.00000000E+00  0.00000000E+00  0.00000000E+00
  0.00000000E+00  0.00000000E+00  0.00000000E+00  0.00000000E+00  0.00000000E+00
  0.00000000E+00  1.00000000E+00  0.00000000E+00  0.00000000E+00  3.73824512E-03
  5.34179265E-03  0.00000000E+00  0.00000000E+00  0.00000000E+00 -2.66569421E-02
  0.00000000E+00  0.00000000E+00  0.00000000E+00  8.29433076E-03  0.00000000E+00
  0.00000000E+00  0.00000000E+00 -2.07135528E-03  0.00000000E+00  0.00000000E+00
  0.00000000E+00  4.99903824E-01  0.00000000E+00  0.00000000E+00  8.65858822E-01
  0.00000000E+00  0.00000000E+00  0.00000000E+00 -1.27069304E+00  0.00000000E+00
  0.00000000E+00  0.00000000E+00  1.52264342E+00  0.00000000E+00  0.00000000E+00
  0.00000000E+00 -8.61252644E-01  0.00000000E+00  0.00000000E+00  0.00000000E+00
  3.16046480E-01  0.00000000E+00  0.00000000E+00  0.00000000E+00  0.00000000E+00
  0.00000000E+00  0.00000000E+00  0.00000000E+00  0.00000000E+00  0.00000000E+00
  0.00000000E+00  0.00000000E+00 -1.27069304E+00  0.00000000E+00  0.00000000E+00
  0.00000000E+00  1.52264342E+00  0.00000000E+00  0.00000000E+00  0.00000000E+00
 -8.61252644E-01  0.00000000E+00  0.00000000E+00  0.00000000E+00  3.16046480E-01
  0.00000000E+00  0.00000000E+00  0.00000000E+00  0.00000000E+00  0.00000000E+00
  0.00000000E+00  0.00000000E+00  0.00000000E+00 -1.27150794E+00  0.00000000E+00
  0.00000000E+00  0.00000000E+00  1.51980843E+00  0.00000000E+00  0.00000000E+00
  0.00000000E+00 -8.54647455E-01  0.00000000E+00  0.00000000E+00  0.00000000E+00
  3.13003833E-01  0.00000000E+00  0.00000000E+00  0.00000000E+00  0.00000000E+00
  0.00000000E+00  0.00000000E+00 -2.24601701E+00  2.33018146E+00  0.00000000E+00
  0.00000000E+00  0.00000000E+00 -2.49014439E-01  0.00000000E+00  0.00000000E+00
  0.00000000E+00  2.29353453E-01  0.00000000E+00  0.00000000E+00  0.00000000E+00
 -9.15315426E-02  0.00000000E+00  0.00000000E+00  0.00000000E+00  1.04492766E-04
  0.00000000E+00  0.00000000E+00  1.80986780E-04  0.00000000E+00
Beta MO coefficients                       R   N=         484
  5.52380180E-01  4.69797790E-01  0.00000000E+00  0.00000000E+00  0.00000000E+00
  9.29926526E-03  0.00000000E+00  0.00000000E+00  0.00000000E+00 -4.13442998E-03
  0.00000000E+00  0.00000000E+00  0.00000000E+00  1.52734241E-03  0.00000000E+00
  0.00000000E+00  0.00000000E+00 -2.07826870E-04  0.00000000E+00  0.00000000E+00
 -3.59966699E-04  0.00000000E+00 -1.28178409E-01 -2.06849156E-01  0.00000000E+00
  0.00000000E+00  0.00000000E+00  6.13715107E-01  0.00000000E+00  0.00000000E+00
  0.00000000E+00  5.04270534E-01  0.00000000E+00  0.00000000E+00  0.00000000E+00
  6.53151756E-03  0.00000000E+00  0.00000000E+00  0.00000000E+00 -5.20393257E-03
  0.00000000E+00  0.00000000E+00 -9.01347561E-03  0.00000000E+00  0.00000000E+00
  0.00000000E+00  0.00000000E+00  3.09838161E-01  0.00000000E+00  0.00000000E+00
  0.00000000E+00  4.54476472E-01  0.00000000E+00  0.00000000E+00  0.00000000E+00
  4.08422904E-01  0.00000000E+00  0.00000000E+00  0.00000000E+00  8.48866459E-02
  0.00000000E+00  0.00000000E+00  0.00000000E+00  0.00000000E+00  0.00000000E+00
  0.00000000E+00  0.00000000E+00  0.00000000E+00  2.79680418E-01  0.00000000E+00
  0.00000000E+00  0.00000000E+00  4.14823070E-01  0.00000000E+00  0.00000000E+00
  0.00000000E+00  4.17006713E-01  0.00000000E+00  0.00000000E+00  0.00000000E+00
  1.75143693E-01  0.00000000E+00  0.00000000E+00  0.00000000E+00  0.00000000E+00
  0.00000000E+00  0.00000000E+00  0.00000000E+00  0.00000000E+00  0.00000000E+00
  0.00000000E+00  0.00000000E+00  2.79680418E-01  0.00000000E+00  0.00000000E+00
  0.00000000E+00  4.14823070E-01  0.00000000E+00  0.00000000E+00  0.00000000E+00
  4.17006713E-01  0.00000000E+00  0.00000000E+00  0.00000000E+00  1.75143693E-01
  0.00000000E+00  0.00000000E+00  0.00000000E+00  0.00000000E+00  0.00000000E+00
  4.01544439E-02  6.36879085E-02  0.00000000E+00  0.00000000E+00  0.00000000E+00
 -1.50385664E-01  0.00000000E+00  0.00000000E+00  0.00000000E+00 -9.59516472E-01
  0.00000000E+00  0.00000000E+00  0.00000000E+00  1.57155272E+00  0.00000000E+00
  0.00000000E+00  0.00000000E+00  9.65698260E-04  0.00000000E+00  0.00000000E+00
  1.67263845E-03  0.00000000E+00  0.00000000E+00  0.00000000E+00  0.00000000E+00
 -1.31398675E-01  0.00000000E+00  0.00000000E+00  0.00000000E+00 -1.34821839E-01
  0.00000000E+00  0.00000000E+00  0.00000000E+00 -4.88317590E-01  0.00000000E+00
  0.00000000E+00  0.00000000E+00  1.23799139E+00  0.00000000E+00  0.00000000E+00
  0.00000000E+00  0.00000000E+00  0.00000000E+00  0.00000000E+00  0.00000000E+00
  0.00000000E+00 -1.51379267E-01  0.00000000E+00  0.00000000E+00  0.00000000E+00
 -1.63982806E-01  0.00000000E+00  0.00000000E+00  0.00000000E+00 -5.57555133E-01
  0.00000000E+00  0.00000000E+00  0.00000000E+00  1.23999525E+00  0.00000000E+00
  0.00000000E+00  0.00000000E+00  0.00000000E+00  0.00000000E+00  0.00000000E+00
  0.00000000E+00  0.00000000E+00  0.00000000E+00  0.00000000E+00  0.00000000E+00
 -1.51379267E-01  0.00000000E+00  0.00000000E+00  0.00000000E+00 -1.63982806E-01
  0.00000000E+00  0.00000000E+00  0.00000000E+00 -5.57555133E-01  0.00000000E+00
  0.00000000E+00  0.00000000E+00  1.23999525E+00  0.00000000E+00  0.00000000E+00
  0.00000000E+00  0.00000000E+00  0.00000000E+00  0.00000000E+00  0.00000000E+00
  0.00000000E+00 -2.64339520E-01  0.00000000E+00  0.00000000E+00  0.00000000E+00
 -8.31749923E-01  0.00000000E+00  0.00000000E+00  0.00000000E+00  1.64217949E+00
  0.00000000E+00  0.00000000E+00  0.00000000E+00 -7.96241965E-01  0.00000000E+00
  0.00000000E+00  0.00000000E+00  0.00000000E+00  0.00000000E+00  0.00000000E+00
  0.00000000E+00  0.00000000E+00  0.00000000E+00  0.00000000E+00 -2.70603601E-01
  0.00000000E+00  0.00000000E+00  0.00000000E+00 -8.60766765E-01  0.00000000E+00
  0.00000000E+00  0.00000000E+00  1.62131640E+00  0.00000000E+00  0.00000000E+00
  0.00000000E+00 -7.79137022E-01  0.00000000E+00  0.00000000E+00  0.00000000E+00
  0.00000000E+00  0.00000000E+00  0.00000000E+00  0.00000000E+00 -2.70603601E-01
  0.00000000E+00  0.00000000E+00  0.00000000E+00 -8.60766765E-01  0.00000000E+00
  0.00000000E+00  0.00000000E+00  1.62131640E+00  0.00000000E+00  0.00000000E+00
  0.00000000E+00 -7.79137022E-01  0.00000000E+00  0.00000000E+00  0.00000000E+00
  0.00000000E+00  0.00000000E+00  0.00000000E+00  0.00000000E+00  1.25023300E-01
  2.47492694E-01  0.00000000E+00  0.00000000E+00  0.00000000E+00 -1.80159293E+00
  0.00000000E+00  0.00000000E+00  0.00000000E+00  2.49265358E+00  0.00000000E+00
  0.00000000E+00  0.00000000E+00 -1.12132034E+00  0.00000000E+00  0.00000000E+00
  0.00000000E+00  3.06886734E-03  0.00000000E+00  0.00000000E+00  5.31543416E-03
  0.00000000E+00  0.00000000E+00  0.00000000E+00  0.00000000E+00  0.00000000E+00
  0.00000000E+00  0.00000000E+00  0.00000000E+00  0.00000000E+00  0.00000000E+00
  0.00000000E+00  0.00000000E+00  0.00000000E+00  0.00000000E+00  0.00000000E+00
  0.00000000E+00  0.00000000E+00  0.00000000E+00  0.00000000E+00  0.00000000E+00
  0.00000000E+00  0.00000000E+00  1.00000000E+00  0.00000000E+00  0.00000000E+00
  0.00000000E+00  0.00000000E+00  0.00000000E+00  0.00000000E+00  0.00000000E+00
  0.00000000E+00  0.00000000E+00  0.00000000E+00  0.00000000E+00  0.00000000E+00
  0.00000000E+00  0.00000000E+00  0.00000000E+00  0.00000000E+00  0.00000000E+00
  0.00000000E+00  0.00000000E+00  1.00000000E+00  0.00000000E+00  0.00000000E+00
 -2.06378155E-03 -3.48133433E-03  0.00000000E+00  0.00000000E+00  0.00000000E+00
  1.77281214E-02  0.00000000E+00  0.00000000E+00  0.00000000E+00 -8.18831971E-03
  0.00000000E+00  0.00000000E+00  0.00000000E+00  3.91132529E-03  0.00000000E+00
  0.00000000E+00  0.00000000E+00  4.99962523E-01  0.00000000E+00  0.00000000E+00
  8.65960492E-01  0.00000000E+00  4.44183583E-16  5.89824855E-16  0.00000000E+00
  0.00000000E+00  0.00000000E+00 -3.67959404E-15  0.00000000E+00  0.00000000E+00
  0.00000000E+00  3.70936951E-15  0.00000000E+00  0.00000000E+00  0.00000000E+00
 -1.36340750E-15  0.00000000E+00  0.00000000E+00  0.00000000E+00  8.66025404E-01
  0.00000000E+00  0.00000000E+00 -5.00000000E-01  0.00000000E+00  0.00000000E+00
  0.00000000E+00  0.00000000E+00  0.00000000E+00  0.00000000E+00  0.00000000E+00
  0.00000000E+00  0.00000000E+00  0.00000000E+00  0.00000000E+00  0.00000000E+00
  0.00000000E+00  0.00000000E+00  0.00000000E+00  0.00000000E+00  0.00000000E+00
  0.00000000E+00  0.00000000E+00  1.00000000E+00  0.00000000E+00  0.00000000E+00
  0.00000000E+00  0.00000000E+00  0.00000000E+00  0.00000000E+00 -1.27261634E+00
  0.00000000E+00  0.00000000E+00  0.00000000E+00  1.51671604E+00  0.00000000E+00
  0.00000000E+00  0.00000000E+00 -8.49461566E-01  0.00000000E+00  0.00000000E+00
  0.00000000E+00  3.10792787E-01  0.00000000E+00  0.00000000E+00  0.00000000E+00
  0.00000000E+00  0.00000000E+00  0.00000000E+00  0.00000000E+00  0.00000000E+00
 -1.27606030E+00  0.00000000E+00  0.00000000E+00  0.00000000E+00  1.50899745E+00
  0.00000000E+00  0.00000000E+00  0.00000000E+00 -8.42717364E-01  0.00000000E+00
  0.00000000E+00  0.00000000E+00  3.08389062E-01  0.00000000E+00  0.00000000E+00
  0.00000000E+00  0.00000000E+00  0.00000000E+00  0.00000000E+00  0.00000000E+00
  0.00000000E+00  0.00000000E+00  0.00000000E+00  0.00000000E+00 -1.27606030E+00
  0.00000000E+00  0.00000000E+00  0.00000000E+00  1.50899745E+00  0.00000000E+00
  0.00000000E+00  0.00000000E+00 -8.42717364E-01  0.00000000E+00  0.00000000E+00
  0.00000000E+00  3.08389062E-01  0.00000000E+00  0.00000000E+00  0.00000000E+00
  0.00000000E+00  0.00000000E+00 -2.24569834E+00  2.33050462E+00  0.00000000E+00
  0.00000000E+00  0.00000000E+00 -2.49448162E-01  0.00000000E+00  0.00000000E+00
  0.00000000E+00  2.29435812E-01  0.00000000E+00  0.00000000E+00  0.00000000E+00
 -9.15426780E-02  0.00000000E+00  0.00000000E+00  0.00000000E+00 -2.54371117E-05
  0.00000000E+00  0.00000000E+00 -4.40583699E-05  0.00000000E+00
Orthonormal basis                          R   N=         484
  2.40254389E-01  2.48108308E-01  0.00000000E+00  0.00000000E+00  0.00000000E+00
  3.12714494E-01  0.00000000E+00  0.00000000E+00  0.00000000E+00  3.09388206E-01
  0.00000000E+00  0.00000000E+00  0.00000000E+00  2.48983539E-01  0.00000000E+00
  0.00000000E+00  0.00000000E+00  0.00000000E+00  0.00000000E+00  0.00000000E+00
  0.00000000E+00  0.00000000E+00  4.37612213E-01  4.31375527E-01  0.00000000E+00
  0.00000000E+00  0.00000000E+00 -8.77440131E-02  0.00000000E+00  0.00000000E+00
  0.00000000E+00 -3.15852006E-01  0.00000000E+00  0.00000000E+00  0.00000000E+00
 -3.49446382E-01  0.00000000E+00  0.00000000E+00  0.00000000E+00  0.00000000E+00
  0.00000000E+00  0.00000000E+00  0.00000000E+00  0.00000000E+00  0.00000000E+00
  0.00000000E+00  0.00000000E+00  0.00000000E+00  0.00000000E+00  0.00000000E+00
  0.00000000E+00  0.00000000E+00  0.00000000E+00  0.00000000E+00  0.00000000E+00
  0.00000000E+00  0.00000000E+00  0.00000000E+00  0.00000000E+00  0.00000000E+00
  0.00000000E+00  1.00000000E+00  0.00000000E+00  0.00000000E+00  0.00000000E+00
  0.00000000E+00  0.00000000E+00  0.00000000E+00  0.00000000E+00  0.00000000E+00
  0.00000000E+00  0.00000000E+00  0.00000000E+00  0.00000000E+00  0.00000000E+00
  0.00000000E+00  0.00000000E+00  0.00000000E+00  0.00000000E+00  0.00000000E+00
  0.00000000E+00  0.00000000E+00  0.00000000E+00  0.00000000E+00  0.00000000E+00
  0.00000000E+00  1.00000000E+00  0.00000000E+00 -2.92457799E-01 -1.77881569E-01
  0.00000000E+00  0.00000000E+00  0.00000000E+00  1.01803681E+00  0.00000000E+00
  0.00000000E+00  0.00000000E+00  6.58257692E-02  0.00000000E+00  0.00000000E+00
  0.00000000E+00 -9.00952799E-01  0.00000000E+00  0.00000000E+00  0.00000000E+00
  0.00000000E+00  0.00000000E+00  0.00000000E+00  0.00000000E+00  0.00000000E+00
  2.02231300E+00 -1.95618674E+00  0.00000000E+00  0.00000000E+00  0.00000000E+00
 -4.83547008E-01  0.00000000E+00  0.00000000E+00  0.00000000E+00  1.08069896E+00
  0.00000000E+00  0.00000000E+00  0.00000000E+00 -7.37666230E-01  0.00000000E+00
  0.00000000E+00  0.00000000E+00  0.00000000E+00  0.00000000E+00  0.00000000E+00
  0.00000000E+00  0.00000000E+00 -9.78495787E-01  1.28612528E+00  0.00000000E+00
  0.00000000E+00  0.00000000E+00 -1.52706199E+00  0.00000000E+00  0.00000000E+00
  0.00000000E+00  2.46440269E+00  0.00000000E+00  0.00000000E+00  0.00000000E+00
 -1.48175728E+00  0.00000000E+00  0.00000000E+00  0.00000000E+00  0.00000000E+00
  0.00000000E+00  0.00000000E+00  0.00000000E+00  0.00000000E+00  0.00000000E+00
  0.00000000E+00  0.00000000E+00  0.00000000E+00  0.00000000E+00  0.00000000E+00
  0.00000000E+00  0.00000000E+00  0.00000000E+00  0.00000000E+00  0.00000000E+00
  0.00000000E+00  0.00000000E+00  0.00000000E+00  0.00000000E+00  0.00000000E+00
  0.00000000E+00  0.00000000E+00  0.00000000E+00  0.00000000E+00  0.00000000E+00
  1.00000000E+00  0.00000000E+00  0.00000000E+00  0.00000000E+00  0.00000000E+00
  0.00000000E+00  0.00000000E+00  0.00000000E+00  0.00000000E+00  0.00000000E+00
  0.00000000E+00  0.00000000E+00  0.00000000E+00  0.00000000E+00  0.00000000E+00
  0.00000000E+00  0.00000000E+00  0.00000000E+00  0.00000000E+00  1.00000000E+00
  0.00000000E+00  0.00000000E+00  0.00000000E+00  0.00000000E+00  0.00000000E+00
  0.00000000E+00  0.00000000E+00  0.00000000E+00  0.00000000E+00  0.00000000E+00
  0.00000000E+00  0.00000000E+00  0.00000000E+00  0.00000000E+00  0.00000000E+00
  0.00000000E+00  0.00000000E+00  0.00000000E+00  0.00000000E+00  0.00000000E+00
  0.00000000E+00  0.00000000E+00  1.00000000E+00  0.00000000E+00  0.00000000E+00
  0.00000000E+00  0.00000000E+00  0.00000000E+00  0.00000000E+00  2.55873991E-01
  0.00000000E+00  0.00000000E+00  0.00000000E+00  3.72870611E-01  0.00000000E+00
  0.00000000E+00  0.00000000E+00  3.88870282E-01  0.00000000E+00  0.00000000E+00
  0.00000000E+00  2.95582357E-01  0.00000000E+00  0.00000000E+00  0.00000000E+00
  0.00000000E+00  0.00000000E+00  0.00000000E+00  0.00000000E+00  0.00000000E+00
  0.00000000E+00  6.03851608E-01  0.00000000E+00  0.00000000E+00  0.00000000E+00
  3.22837419E-01  0.00000000E+00  0.00000000E+00  0.00000000E+00 -2.97177247E-01