fubar                                                                   
SP        UPBE1PBE                                                    6-311+G(d,p)        
Number of atoms                            I                1
Info1-9                                    I   N=           9
          11          10           0           0           0         110
           1          18       -1302
Full Title                                 C   N=           1
fubar       
Route                                      C   N=           3
#PBE1PBE/6-311+G(d,p) scf=tight     
Charge                                     I                0
Multiplicity                               I                3
Number of electrons                        I               16
Number of alpha electrons                  I                9
Number of beta electrons                   I                7
Number of basis functions                  I               30
Number of independent functions            I               30
Number of point charges in /Mol/           I                0
Number of translation vectors              I                0
Atomic numbers                             I   N=           1
          16
Nuclear charges                            R   N=           1
  1.60000000E+01
Current cartesian coordinates              R   N=           3
  0.00000000E+00  0.00000000E+00  0.00000000E+00
Number of symbols in /Mol/                 I                0
Int Atom Types                             I   N=           1
           0
Force Field                                I                0
Atom Types                                 C   N=           1
            
MM charges                                 R   N=           1
  0.00000000E+00
Integer atomic weights                     I   N=           1
          32
Real atomic weights                        R   N=           1
  3.19720718E+01
Atom fragment info                         I   N=           1
           0
Atom residue num                           I   N=           1
           0
Nuclear spins                              I   N=           1
           0
Nuclear ZEff                               R   N=           1
 -1.36000000E+01
Nuclear ZNuc                               R   N=           1
  1.60000000E+01
Nuclear QMom                               R   N=           1
  0.00000000E+00
Nuclear GFac                               R   N=           1
  0.00000000E+00
MicOpt                                     I   N=           1
          -1
Number of residues                         I                0
Number of secondary structures             I                0
SymInf integers                            I   N=          26
           1           8           1           1           1           1
          -1          -1          -1           1          -1          -1
          -1           1          -1          -1          -1          -1
           1           1           1          -1           1           1
           1          -1
RotTr to input orientation                 R   N=          12
  0.00000000E+00  0.00000000E+00 -1.00000000E+00  0.00000000E+00  1.00000000E+00
  0.00000000E+00  1.00000000E+00  0.00000000E+00  0.00000000E+00  0.00000000E+00
  0.00000000E+00  0.00000000E+00
Number of contracted shells                I               13
Number of primitive shells                 I               24
Pure/Cartesian d shells                    I                0
Pure/Cartesian f shells                    I                0
Highest angular momentum                   I                2
Largest degree of contraction              I                6
Shell types                                I   N=          13
           0           0           0           0           0           0
          -1           1           1           1           1           1
          -2
Number of primitives per shell             I   N=          13
           6           3           1           1           1           1
           1           4           2           1           1           1
           1
Shell to atom map                          I   N=          13
           1           1           1           1           1           1
           1           1           1           1           1           1
           1
Primitive exponents                        R   N=          24
  9.34134000E+04  1.39617000E+04  3.16991000E+03  9.02456000E+02  2.97158000E+02
  1.08702000E+02  1.08702000E+02  4.31553000E+01  1.81079000E+01  5.56009000E+00
  2.13183000E+00  4.20403000E-01  1.36045000E-01  4.05000000E-02  4.95040000E+02
  1.17221000E+02  3.77749000E+01  1.40584000E+01  5.56574000E+00  2.26297000E+00
  8.07994000E-01  2.77460000E-01  7.71410000E-02  6.50000000E-01
Contraction coefficients                   R   N=          24
  7.42999957E-04  5.79299966E-03  2.99539983E-02  1.19027993E-01  3.68431979E-01
  5.77298966E-01  1.43186060E-01  6.24465262E-01  2.83366119E-01  1.00000000E+00
  1.00000000E+00  1.00000000E+00  1.00000000E+00  1.00000000E+00  8.30900251E-03
  6.40240194E-02  2.77614084E-01  7.45076225E-01  6.13711672E-01  4.43817763E-01
  1.00000000E+00  1.00000000E+00  1.00000000E+00  1.00000000E+00
P(S=P) Contraction coefficients            R   N=          24
  0.00000000E+00  0.00000000E+00  0.00000000E+00  0.00000000E+00  0.00000000E+00
  0.00000000E+00  0.00000000E+00  0.00000000E+00  0.00000000E+00  0.00000000E+00
  0.00000000E+00  0.00000000E+00  0.00000000E+00  1.00000000E+00  0.00000000E+00
  0.00000000E+00  0.00000000E+00  0.00000000E+00  0.00000000E+00  0.00000000E+00
  0.00000000E+00  0.00000000E+00  0.00000000E+00  0.00000000E+00
Coordinates of each shell                  R   N=          39
  0.00000000E+00  0.00000000E+00  0.00000000E+00  0.00000000E+00  0.00000000E+00
  0.00000000E+00  0.00000000E+00  0.00000000E+00  0.00000000E+00  0.00000000E+00
  0.00000000E+00  0.00000000E+00  0.00000000E+00  0.00000000E+00  0.00000000E+00
  0.00000000E+00  0.00000000E+00  0.00000000E+00  0.00000000E+00  0.00000000E+00
  0.00000000E+00  0.00000000E+00  0.00000000E+00  0.00000000E+00  0.00000000E+00
  0.00000000E+00  0.00000000E+00  0.00000000E+00  0.00000000E+00  0.00000000E+00
  0.00000000E+00  0.00000000E+00  0.00000000E+00  0.00000000E+00  0.00000000E+00
  0.00000000E+00  0.00000000E+00  0.00000000E+00  0.00000000E+00
Num ILSW                                   I              100
ILSW                                       I   N=         100
           1           0           0           0           2           0
           0           0           0           0        1009          -1
           5           0           0           0           0           0
           0           0           0           0           0           0
           1           0           0           0           0           0
           0           0      100000           0          -1           0
           0           0           0           0           0           0
           0           0           0           1           0           0
           0 -2000000000           1           0           0           0
           0           1           4          52           0           0
           0           0          13           0           0           0
           0           0           0           1           0           1
           0           0           0           0           0           0
           0           0           0           0           0           0
           0           0           0           0           0           0
           0           0           0           0           0           0
           0           0           0           0
Num RLSW                                   I               52
RLSW                                       R   N=          52
  7.50000000E-01  7.50000000E-01  1.00000000E+00  1.00000000E+00  2.50000000E-01
  0.00000000E+00  0.00000000E+00  1.00000000E+00  0.00000000E+00  0.00000000E+00
  0.00000000E+00  0.00000000E+00  1.00000000E+00  0.00000000E+00  0.00000000E+00
  0.00000000E+00  0.00000000E+00  1.00000000E+00  0.00000000E+00  0.00000000E+00
  0.00000000E+00  0.00000000E+00  1.00000000E+00  0.00000000E+00  0.00000000E+00
  0.00000000E+00  0.00000000E+00  1.00000000E+00  0.00000000E+00  0.00000000E+00
  0.00000000E+00  0.00000000E+00  1.00000000E+00  0.00000000E+00  0.00000000E+00
  0.00000000E+00  0.00000000E+00  0.00000000E+00  1.00000000E+00  1.00000000E+00
  0.00000000E+00  1.00000000E+00  0.00000000E+00  0.00000000E+00  0.00000000E+00
  0.00000000E+00  0.00000000E+00  0.00000000E+00  0.00000000E+00  0.00000000E+00
  0.00000000E+00  0.00000000E+00
MxBond                                     I                1
NBond                                      I   N=           1
           0
IBond                                      I   N=           1
           0
RBond                                      R   N=           1
  0.00000000E+00
Virial Ratio                               R      2.001146762173678E+00
SCF Energy                                 R     -3.979731912967570E+02
Total Energy                               R     -3.979731912967570E+02
S**2                                       R      2.002771606006337E+00
S**2 after annihilation                    R      2.000001561844079E+00
RMS Density                                R      5.704110541869170E-10
Job Status                                 I                1
Nuclear derivative order                   I                0
External E-field                           R   N=          35
  0.00000000E+00  0.00000000E+00  0.00000000E+00  0.00000000E+00  0.00000000E+00
  0.00000000E+00  0.00000000E+00  0.00000000E+00  0.00000000E+00  0.00000000E+00
  0.00000000E+00  0.00000000E+00  0.00000000E+00  0.00000000E+00  0.00000000E+00
  0.00000000E+00  0.00000000E+00  0.00000000E+00  0.00000000E+00  0.00000000E+00
  0.00000000E+00  0.00000000E+00  0.00000000E+00  0.00000000E+00  0.00000000E+00
  0.00000000E+00  0.00000000E+00  0.00000000E+00  0.00000000E+00  0.00000000E+00
  0.00000000E+00  0.00000000E+00  0.00000000E+00  0.00000000E+00  0.00000000E+00
IOpCl                                      I                1
IROHF                                      I                0
Alpha Orbital Energies                     R   N=          30
 -8.90788750E+01 -8.05841901E+00 -6.00181030E+00 -6.00181030E+00 -5.98122259E+00
 -7.48653282E-01 -3.51889547E-01 -3.51889547E-01 -2.99789764E-01  2.13495571E-02
  5.54842849E-02  5.54842849E-02  6.25032683E-02  3.16906333E-01  3.16906333E-01
  3.36393749E-01  5.56716857E-01  6.84965165E-01  6.84965165E-01  7.29097292E-01
  7.29097292E-01  7.45540501E-01  1.61331263E+00  1.61331263E+00  1.65395257E+00
  7.57231685E+00  1.73087313E+01  1.73087313E+01  1.73313664E+01  1.88895268E+02
Beta Orbital Energies                      R   N=          30
 -8.90669797E+01 -8.04718435E+00 -5.97817765E+00 -5.97817765E+00 -5.97475032E+00
 -6.41040384E-01 -2.69151265E-01 -1.62381344E-01 -1.62381344E-01  3.82956898E-02
  6.60585288E-02  7.31669399E-02  7.31669399E-02  3.46107373E-01  3.55031459E-01
  3.55031459E-01  5.97822035E-01  7.94672523E-01  7.94672523E-01  7.99370963E-01
  8.13144815E-01  8.13144815E-01  1.67182884E+00  1.67793821E+00  1.67793821E+00
  7.59707582E+00  1.73400739E+01  1.73400739E+01  1.73402550E+01  1.88905717E+02
Alpha MO coefficients                      R   N=         900
  4.11041885E-01  6.54282259E-01  1.50653632E-02 -4.15837989E-03  1.36430385E-03
 -7.82853750E-04  2.42289575E-04  0.00000000E+00  0.00000000E+00  0.00000000E+00
  0.00000000E+00  0.00000000E+00  0.00000000E+00  0.00000000E+00  0.00000000E+00
  0.00000000E+00  0.00000000E+00  0.00000000E+00  0.00000000E+00  0.00000000E+00
  0.00000000E+00  0.00000000E+00  0.00000000E+00  0.00000000E+00  0.00000000E+00
  2.36670173E-07  0.00000000E+00  0.00000000E+00 -4.09924765E-07  0.00000000E+00
 -1.19708858E-01 -3.21157024E-01  5.20855111E-01  5.91650558E-01  4.92082964E-02
 -1.74096748E-02  4.97174843E-03  0.00000000E+00  0.00000000E+00  0.00000000E+00
  0.00000000E+00  0.00000000E+00  0.00000000E+00  0.00000000E+00  0.00000000E+00
  0.00000000E+00  0.00000000E+00  0.00000000E+00  0.00000000E+00  0.00000000E+00
  0.00000000E+00  0.00000000E+00  0.00000000E+00  0.00000000E+00  0.00000000E+00
  4.26287065E-04  0.00000000E+00  0.00000000E+00 -7.38350854E-04  0.00000000E+00
  0.00000000E+00  0.00000000E+00  0.00000000E+00  0.00000000E+00  0.00000000E+00
  0.00000000E+00  0.00000000E+00  0.00000000E+00  0.00000000E+00 -1.78572020E-03
  0.00000000E+00  0.00000000E+00  3.77541970E-01  0.00000000E+00  0.00000000E+00
  7.08670754E-01  0.00000000E+00  0.00000000E+00  5.71520256E-02  0.00000000E+00
  0.00000000E+00 -6.14702687E-03  0.00000000E+00  0.00000000E+00  3.41602000E-03
  0.00000000E+00  0.00000000E+00  0.00000000E+00  0.00000000E+00  0.00000000E+00
  0.00000000E+00  0.00000000E+00  0.00000000E+00  0.00000000E+00  0.00000000E+00
  0.00000000E+00  0.00000000E+00  0.00000000E+00 -1.78572020E-03  0.00000000E+00
  0.00000000E+00  3.77541970E-01  0.00000000E+00  0.00000000E+00  7.08670754E-01
  0.00000000E+00  0.00000000E+00  5.71520256E-02  0.00000000E+00  0.00000000E+00
 -6.14702687E-03  0.00000000E+00  0.00000000E+00  3.41602000E-03  0.00000000E+00
  0.00000000E+00  0.00000000E+00  0.00000000E+00  0.00000000E+00  0.00000000E+00
  0.00000000E+00  0.00000000E+00  0.00000000E+00  0.00000000E+00  0.00000000E+00
  0.00000000E+00  0.00000000E+00 -1.66751190E-03  0.00000000E+00  0.00000000E+00
  3.77867726E-01  0.00000000E+00  0.00000000E+00  7.09150519E-01  0.00000000E+00
  0.00000000E+00  5.55449297E-02  0.00000000E+00  0.00000000E+00 -5.79233049E-03
  0.00000000E+00  0.00000000E+00  3.19410937E-03  0.00000000E+00  0.00000000E+00
  0.00000000E+00  0.00000000E+00  0.00000000E+00  0.00000000E+00  0.00000000E+00
  3.67717600E-02  1.04695504E-01 -2.23029578E-01 -3.98275730E-01  7.32774606E-01
  4.88536857E-01 -2.41364887E-02  0.00000000E+00  0.00000000E+00  0.00000000E+00
  0.00000000E+00  0.00000000E+00  0.00000000E+00  0.00000000E+00  0.00000000E+00
  0.00000000E+00  0.00000000E+00  0.00000000E+00  0.00000000E+00  0.00000000E+00
  0.00000000E+00  0.00000000E+00  0.00000000E+00  0.00000000E+00  0.00000000E+00
  1.55960643E-02  0.00000000E+00  0.00000000E+00 -2.70131757E-02  0.00000000E+00
  0.00000000E+00  0.00000000E+00  0.00000000E+00  0.00000000E+00  0.00000000E+00
  0.00000000E+00  0.00000000E+00  0.00000000E+00 -4.95798071E-02  0.00000000E+00
  0.00000000E+00 -1.07301964E-01  0.00000000E+00  0.00000000E+00 -2.05970085E-01
  0.00000000E+00  0.00000000E+00  2.94496957E-01  0.00000000E+00  0.00000000E+00
  6.40716467E-01  0.00000000E+00  0.00000000E+00  2.82072394E-01  0.00000000E+00
  0.00000000E+00  0.00000000E+00  0.00000000E+00  0.00000000E+00  0.00000000E+00
  0.00000000E+00  0.00000000E+00  0.00000000E+00  0.00000000E+00  0.00000000E+00
  0.00000000E+00  0.00000000E+00  0.00000000E+00  0.00000000E+00 -4.95798071E-02
  0.00000000E+00  0.00000000E+00 -1.07301964E-01  0.00000000E+00  0.00000000E+00
 -2.05970085E-01  0.00000000E+00  0.00000000E+00  2.94496957E-01  0.00000000E+00
  0.00000000E+00  6.40716467E-01  0.00000000E+00  0.00000000E+00  2.82072394E-01
  0.00000000E+00  0.00000000E+00  0.00000000E+00  0.00000000E+00  0.00000000E+00
  0.00000000E+00  0.00000000E+00  0.00000000E+00  0.00000000E+00  0.00000000E+00
  0.00000000E+00  0.00000000E+00 -4.88833420E-02  0.00000000E+00  0.00000000E+00
 -1.04931142E-01  0.00000000E+00  0.00000000E+00 -2.00104086E-01  0.00000000E+00
  0.00000000E+00  2.86670524E-01  0.00000000E+00  0.00000000E+00  6.16112838E-01
  0.00000000E+00  0.00000000E+00  3.22748830E-01  0.00000000E+00  0.00000000E+00
  0.00000000E+00  0.00000000E+00  0.00000000E+00  0.00000000E+00  0.00000000E+00
 -1.08516883E-02 -3.15111444E-02  7.27041631E-02  1.13502054E-01 -2.11514869E-01
 -7.87146613E-01  1.46130408E+00  0.00000000E+00  0.00000000E+00  0.00000000E+00
  0.00000000E+00  0.00000000E+00  0.00000000E+00  0.00000000E+00  0.00000000E+00
  0.00000000E+00  0.00000000E+00  0.00000000E+00  0.00000000E+00  0.00000000E+00
  0.00000000E+00  0.00000000E+00  0.00000000E+00  0.00000000E+00  0.00000000E+00
 -5.30525605E-03  0.00000000E+00  0.00000000E+00  9.18897303E-03  0.00000000E+00
  0.00000000E+00  0.00000000E+00  0.00000000E+00  0.00000000E+00  0.00000000E+00
  0.00000000E+00  0.00000000E+00  0.00000000E+00  0.00000000E+00  1.60072708E+00
  0.00000000E+00  0.00000000E+00  2.99086225E-02  0.00000000E+00  0.00000000E+00
  6.00721295E-02  0.00000000E+00  0.00000000E+00 -1.13284325E-01  0.00000000E+00
  0.00000000E+00 -1.27528496E-01  0.00000000E+00  0.00000000E+00 -7.71428388E-01
  0.00000000E+00  0.00000000E+00  0.00000000E+00  0.00000000E+00  0.00000000E+00
  0.00000000E+00  0.00000000E+00  0.00000000E+00  0.00000000E+00  0.00000000E+00
  0.00000000E+00  0.00000000E+00  0.00000000E+00  1.60072708E+00  0.00000000E+00
  0.00000000E+00  2.99086225E-02  0.00000000E+00  0.00000000E+00  6.00721295E-02
  0.00000000E+00  0.00000000E+00 -1.13284325E-01  0.00000000E+00  0.00000000E+00
 -1.27528496E-01  0.00000000E+00  0.00000000E+00 -7.71428388E-01  0.00000000E+00
  0.00000000E+00  0.00000000E+00  0.00000000E+00  0.00000000E+00  0.00000000E+00
  0.00000000E+00  0.00000000E+00  0.00000000E+00  0.00000000E+00  0.00000000E+00
  0.00000000E+00  0.00000000E+00  1.65067378E+00  0.00000000E+00  0.00000000E+00
  3.05602153E-02  0.00000000E+00  0.00000000E+00  6.11195781E-02  0.00000000E+00
  0.00000000E+00 -1.14791308E-01  0.00000000E+00  0.00000000E+00 -1.18181862E-01
  0.00000000E+00  0.00000000E+00 -8.52306544E-01  0.00000000E+00  0.00000000E+00
  0.00000000E+00  0.00000000E+00  0.00000000E+00  0.00000000E+00  0.00000000E+00
  0.00000000E+00  0.00000000E+00  0.00000000E+00  0.00000000E+00  0.00000000E+00
  0.00000000E+00  0.00000000E+00  0.00000000E+00  0.00000000E+00 -1.79080227E+00
  0.00000000E+00  0.00000000E+00  6.77077821E-02  0.00000000E+00  0.00000000E+00
  1.19723983E-01  0.00000000E+00  0.00000000E+00 -1.41374155E-01  0.00000000E+00
  0.00000000E+00 -9.70034662E-01  0.00000000E+00  0.00000000E+00  2.68089538E+00
  0.00000000E+00  0.00000000E+00  0.00000000E+00  0.00000000E+00  0.00000000E+00
  0.00000000E+00  0.00000000E+00  0.00000000E+00  0.00000000E+00  0.00000000E+00
  0.00000000E+00  0.00000000E+00  0.00000000E+00 -1.79080227E+00  0.00000000E+00
  0.00000000E+00  6.77077821E-02  0.00000000E+00  0.00000000E+00  1.19723983E-01
  0.00000000E+00  0.00000000E+00 -1.41374155E-01  0.00000000E+00  0.00000000E+00
 -9.70034662E-01  0.00000000E+00  0.00000000E+00  2.68089538E+00  0.00000000E+00
  0.00000000E+00  0.00000000E+00  0.00000000E+00  0.00000000E+00  0.00000000E+00
  0.00000000E+00  0.00000000E+00  0.00000000E+00  0.00000000E+00  0.00000000E+00
  0.00000000E+00  0.00000000E+00 -1.74955635E+00  0.00000000E+00  0.00000000E+00
  7.00183196E-02  0.00000000E+00  0.00000000E+00  1.22419316E-01  0.00000000E+00
  0.00000000E+00 -1.38255199E-01  0.00000000E+00  0.00000000E+00 -1.00242040E+00
  0.00000000E+00  0.00000000E+00  2.66133320E+00  0.00000000E+00  0.00000000E+00
  0.00000000E+00  0.00000000E+00  0.00000000E+00  0.00000000E+00  0.00000000E+00
 -3.17975126E-02 -8.73579884E-02  1.58016370E-01  5.51126708E-01 -2.30541372E+00
  2.76455551E+00 -1.11811209E+00  0.00000000E+00  0.00000000E+00  0.00000000E+00
  0.00000000E+00  0.00000000E+00  0.00000000E+00  0.00000000E+00  0.00000000E+00
  0.00000000E+00  0.00000000E+00  0.00000000E+00  0.00000000E+00  0.00000000E+00
  0.00000000E+00  0.00000000E+00  0.00000000E+00  0.00000000E+00  0.00000000E+00
 -2.45921255E-02  0.00000000E+00  0.00000000E+00  4.25948108E-02  0.00000000E+00
  0.00000000E+00  0.00000000E+00  0.00000000E+00  0.00000000E+00  0.00000000E+00
  0.00000000E+00  0.00000000E+00  0.00000000E+00  0.00000000E+00  0.00000000E+00
  0.00000000E+00  0.00000000E+00  0.00000000E+00  0.00000000E+00  0.00000000E+00
  0.00000000E+00  0.00000000E+00  0.00000000E+00  0.00000000E+00  0.00000000E+00
  0.00000000E+00  0.00000000E+00  0.00000000E+00  0.00000000E+00  0.00000000E+00
  0.00000000E+00  0.00000000E+00  1.00000000E+00  0.00000000E+00  0.00000000E+00
 -1.53511870E-16 -4.41899603E-16  9.51691072E-16  2.39571246E-15 -1.39732833E-14
  2.24484754E-14 -1.12464789E-14  0.00000000E+00  0.00000000E+00  0.00000000E+00
  0.00000000E+00  0.00000000E+00  0.00000000E+00  0.00000000E+00  0.00000000E+00
  0.00000000E+00  0.00000000E+00  0.00000000E+00  0.00000000E+00  0.00000000E+00
  0.00000000E+00  0.00000000E+00  0.00000000E+00  0.00000000E+00  0.00000000E+00
  8.66025404E-01  0.00000000E+00  0.00000000E+00  5.00000000E-01  0.00000000E+00
  0.00000000E+00  0.00000000E+00  0.00000000E+00  0.00000000E+00  0.00000000E+00
  0.00000000E+00  0.00000000E+00  0.00000000E+00  0.00000000E+00  0.00000000E+00
  0.00000000E+00  0.00000000E+00  0.00000000E+00  0.00000000E+00  0.00000000E+00
  0.00000000E+00  0.00000000E+00  0.00000000E+00  0.00000000E+00  0.00000000E+00
  0.00000000E+00  0.00000000E+00  0.00000000E+00  0.00000000E+00  0.00000000E+00
  0.00000000E+00  0.00000000E+00  0.00000000E+00  0.00000000E+00  1.00000000E+00
  0.00000000E+00  0.00000000E+00  0.00000000E+00  0.00000000E+00  0.00000000E+00
  0.00000000E+00  0.00000000E+00  0.00000000E+00  0.00000000E+00  0.00000000E+00
  0.00000000E+00  0.00000000E+00  0.00000000E+00  0.00000000E+00  0.00000000E+00
  0.00000000E+00  0.00000000E+00  0.00000000E+00  0.00000000E+00  0.00000000E+00
  0.00000000E+00  0.00000000E+00  0.00000000E+00  0.00000000E+00  0.00000000E+00
  0.00000000E+00  1.00000000E+00  0.00000000E+00  0.00000000E+00  0.00000000E+00
  2.91615423E-03  8.44453831E-03 -1.94790611E-02 -3.52873104E-02  1.36082695E-01
 -1.11004165E-01  3.83193589E-02  0.00000000E+00  0.00000000E+00  0.00000000E+00
  0.00000000E+00  0.00000000E+00  0.00000000E+00  0.00000000E+00  0.00000000E+00
  0.00000000E+00  0.00000000E+00  0.00000000E+00  0.00000000E+00  0.00000000E+00
  0.00000000E+00  0.00000000E+00  0.00000000E+00  0.00000000E+00  0.00000000E+00
 -4.99122134E-01  0.00000000E+00  0.00000000E+00  8.64504896E-01  0.00000000E+00
  0.00000000E+00  0.00000000E+00  0.00000000E+00  0.00000000E+00  0.00000000E+00
  0.00000000E+00  0.00000000E+00  0.00000000E+00  7.46008009E-01  0.00000000E+00
  0.00000000E+00  1.72274904E-01  0.00000000E+00  0.00000000E+00  4.15875595E-01
  0.00000000E+00  0.00000000E+00 -1.78954459E+00  0.00000000E+00  0.00000000E+00
  1.96129303E+00  0.00000000E+00  0.00000000E+00 -1.41969945E+00  0.00000000E+00
  0.00000000E+00  0.00000000E+00  0.00000000E+00  0.00000000E+00  0.00000000E+00
  0.00000000E+00  0.00000000E+00  0.00000000E+00  0.00000000E+00  0.00000000E+00
  0.00000000E+00  0.00000000E+00  0.00000000E+00  0.00000000E+00  7.46008009E-01
  0.00000000E+00  0.00000000E+00  1.72274904E-01  0.00000000E+00  0.00000000E+00
  4.15875595E-01  0.00000000E+00  0.00000000E+00 -1.78954459E+00  0.00000000E+00
  0.00000000E+00  1.96129303E+00  0.00000000E+00  0.00000000E+00 -1.41969945E+00
  0.00000000E+00  0.00000000E+00  0.00000000E+00  0.00000000E+00  0.00000000E+00
  0.00000000E+00  0.00000000E+00  0.00000000E+00  0.00000000E+00  0.00000000E+00
  0.00000000E+00  0.00000000E+00  7.35025754E-01  0.00000000E+00  0.00000000E+00
  1.73046392E-01  0.00000000E+00  0.00000000E+00  4.15937626E-01  0.00000000E+00
  0.00000000E+00 -1.79058208E+00  0.00000000E+00  0.00000000E+00  1.95342344E+00
  0.00000000E+00  0.00000000E+00 -1.40150734E+00  0.00000000E+00  0.00000000E+00
  0.00000000E+00  0.00000000E+00  0.00000000E+00  0.00000000E+00  0.00000000E+00
  1.14841177E-01  4.54120226E-01 -2.51445968E+00  2.87036202E+00 -1.54316749E+00
  9.11030884E-01 -2.79802596E-01  0.00000000E+00  0.00000000E+00  0.00000000E+00
  0.00000000E+00  0.00000000E+00  0.00000000E+00  0.00000000E+00  0.00000000E+00
  0.00000000E+00  0.00000000E+00  0.00000000E+00  0.00000000E+00  0.00000000E+00
  0.00000000E+00  0.00000000E+00  0.00000000E+00  0.00000000E+00  0.00000000E+00
  8.70447218E-04  0.00000000E+00  0.00000000E+00 -1.50765881E-03  0.00000000E+00
  0.00000000E+00  0.00000000E+00  0.00000000E+00  0.00000000E+00  0.00000000E+00
  0.00000000E+00  0.00000000E+00  0.00000000E+00  1.82141053E-01  0.00000000E+00
  0.00000000E+00 -1.21205679E+00  0.00000000E+00  0.00000000E+00  1.37291187E+00
  0.00000000E+00  0.00000000E+00 -9.35781738E-01  0.00000000E+00  0.00000000E+00
  5.62412251E-01  0.00000000E+00  0.00000000E+00 -3.44311780E-01  0.00000000E+00
  0.00000000E+00  0.00000000E+00  0.00000000E+00  0.00000000E+00  0.00000000E+00
  0.00000000E+00  0.00000000E+00  0.00000000E+00  0.00000000E+00  0.00000000E+00
  0.00000000E+00  0.00000000E+00  0.00000000E+00  0.00000000E+00  1.82141053E-01
  0.00000000E+00  0.00000000E+00 -1.21205679E+00  0.00000000E+00  0.00000000E+00
  1.37291187E+00  0.00000000E+00  0.00000000E+00 -9.35781738E-01  0.00000000E+00
  0.00000000E+00  5.62412251E-01  0.00000000E+00  0.00000000E+00 -3.44311780E-01
  0.00000000E+00  0.00000000E+00  0.00000000E+00  0.00000000E+00  0.00000000E+00
  0.00000000E+00  0.00000000E+00  0.00000000E+00  0.00000000E+00  0.00000000E+00
  0.00000000E+00  0.00000000E+00  1.82038559E-01  0.00000000E+00  0.00000000E+00
 -1.21190540E+00  0.00000000E+00  0.00000000E+00  1.37322890E+00  0.00000000E+00
  0.00000000E+00 -9.36606189E-01  0.00000000E+00  0.00000000E+00  5.62546609E-01
  0.00000000E+00  0.00000000E+00 -3.44172543E-01  0.00000000E+00  0.00000000E+00
  0.00000000E+00  0.00000000E+00  0.00000000E+00  0.00000000E+00  0.00000000E+00
 -1.53761119E+00  1.87586327E+00 -1.34035588E+00  8.64301811E-01 -3.31117923E-01
  1.90479193E-01 -5.92055657E-02  0.00000000E+00  0.00000000E+00  0.00000000E+00
  0.00000000E+00  0.00000000E+00  0.00000000E+00  0.00000000E+00  0.00000000E+00
  0.00000000E+00  0.00000000E+00  0.00000000E+00  0.00000000E+00  0.00000000E+00
  0.00000000E+00  0.00000000E+00  0.00000000E+00  0.00000000E+00  0.00000000E+00
  4.25799641E-06  0.00000000E+00  0.00000000E+00 -7.37506612E-06  0.00000000E+00
Beta MO coefficients                       R   N=         900
  4.11102990E-01  6.54273542E-01  1.49295481E-02 -4.08423800E-03  1.35201924E-03
 -7.69382270E-04  2.38457990E-04  0.00000000E+00  0.00000000E+00  0.00000000E+00
  0.00000000E+00  0.00000000E+00  0.00000000E+00  0.00000000E+00  0.00000000E+00
  0.00000000E+00  0.00000000E+00  0.00000000E+00  0.00000000E+00  0.00000000E+00
  0.00000000E+00  0.00000000E+00  0.00000000E+00  0.00000000E+00  0.00000000E+00
  2.38637030E-06  0.00000000E+00  0.00000000E+00 -4.13331460E-06  0.00000000E+00
 -1.19648874E-01 -3.20997114E-01  5.19632456E-01  5.93926078E-01  4.69827193E-02
 -1.68894976E-02  4.78708631E-03  0.00000000E+00  0.00000000E+00  0.00000000E+00
  0.00000000E+00  0.00000000E+00  0.00000000E+00  0.00000000E+00  0.00000000E+00
  0.00000000E+00  0.00000000E+00  0.00000000E+00  0.00000000E+00  0.00000000E+00
  0.00000000E+00  0.00000000E+00  0.00000000E+00  0.00000000E+00  0.00000000E+00
  4.11175036E-05  0.00000000E+00  0.00000000E+00 -7.12176054E-05  0.00000000E+00
  0.00000000E+00  0.00000000E+00  0.00000000E+00  0.00000000E+00  0.00000000E+00
  0.00000000E+00  0.00000000E+00  0.00000000E+00 -2.02165625E-03  0.00000000E+00
  0.00000000E+00  3.76458680E-01  0.00000000E+00  0.00000000E+00  7.09859017E-01
  0.00000000E+00  0.00000000E+00  5.68367235E-02  0.00000000E+00  0.00000000E+00
 -6.88037722E-03  0.00000000E+00  0.00000000E+00  3.84872278E-03  0.00000000E+00
  0.00000000E+00  0.00000000E+00  0.00000000E+00  0.00000000E+00  0.00000000E+00
  0.00000000E+00  0.00000000E+00  0.00000000E+00  0.00000000E+00  0.00000000E+00
  0.00000000E+00  0.00000000E+00  0.00000000E+00  0.00000000E+00 -2.02165625E-03
  0.00000000E+00  0.00000000E+00  3.76458680E-01  0.00000000E+00  0.00000000E+00
  7.09859017E-01  0.00000000E+00  0.00000000E+00  5.68367235E-02  0.00000000E+00
  0.00000000E+00 -6.88037722E-03  0.00000000E+00  0.00000000E+00  3.84872278E-03
  0.00000000E+00  0.00000000E+00  0.00000000E+00  0.00000000E+00  0.00000000E+00
  0.00000000E+00  0.00000000E+00  0.00000000E+00  0.00000000E+00  0.00000000E+00
  0.00000000E+00  0.00000000E+00 -1.75491338E-03  0.00000000E+00  0.00000000E+00
  3.77581227E-01  0.00000000E+00  0.00000000E+00  7.09517252E-01  0.00000000E+00
  0.00000000E+00  5.53956710E-02  0.00000000E+00  0.00000000E+00 -6.08826912E-03
  0.00000000E+00  0.00000000E+00  3.35490602E-03  0.00000000E+00  0.00000000E+00
  0.00000000E+00  0.00000000E+00  0.00000000E+00  0.00000000E+00  0.00000000E+00
  3.66682215E-02  1.04952157E-01 -2.28413751E-01 -3.85188957E-01  7.15189268E-01
  4.93898631E-01 -1.13632981E-02  0.00000000E+00  0.00000000E+00  0.00000000E+00
  0.00000000E+00  0.00000000E+00  0.00000000E+00  0.00000000E+00  0.00000000E+00
  0.00000000E+00  0.00000000E+00  0.00000000E+00  0.00000000E+00  0.00000000E+00
  0.00000000E+00  0.00000000E+00  0.00000000E+00  0.00000000E+00  0.00000000E+00
 -7.48795951E-03  0.00000000E+00  0.00000000E+00  1.29695263E-02  0.00000000E+00
  0.00000000E+00  0.00000000E+00  0.00000000E+00  0.00000000E+00  0.00000000E+00
  0.00000000E+00  0.00000000E+00 -4.44283532E-02  0.00000000E+00  0.00000000E+00
 -1.03919637E-01  0.00000000E+00  0.00000000E+00 -1.97632165E-01  0.00000000E+00
  0.00000000E+00  2.85382607E-01  0.00000000E+00  0.00000000E+00  5.98507864E-01
  0.00000000E+00  0.00000000E+00  3.44149142E-01  0.00000000E+00  0.00000000E+00
  0.00000000E+00  0.00000000E+00  0.00000000E+00  0.00000000E+00  0.00000000E+00
  0.00000000E+00  0.00000000E+00  0.00000000E+00  0.00000000E+00  0.00000000E+00
  0.00000000E+00  0.00000000E+00  0.00000000E+00  0.00000000E+00 -1.75820648E-02
  0.00000000E+00  0.00000000E+00 -9.92887324E-02  0.00000000E+00  0.00000000E+00
 -1.88647908E-01  0.00000000E+00  0.00000000E+00  2.66606473E-01  0.00000000E+00
  0.00000000E+00  5.66317021E-01  0.00000000E+00  0.00000000E+00  3.82784255E-01
  0.00000000E+00  0.00000000E+00  0.00000000E+00  0.00000000E+00  0.00000000E+00