fubar                                                                   
SP        UPBE1PBE                                                    6-311+G(d,p)        
Number of atoms                            I                1
Info1-9                                    I   N=           9
          11          10           0           0           0         110
           1          18       -1302
Full Title                                 C   N=           1
fubar       
Route                                      C   N=           3
#PBE1PBE/6-311+G(d,p) scf=tight     
Charge                                     I                0
Multiplicity                               I                3
Number of electrons                        I               14
Number of alpha electrons                  I                8
Number of beta electrons                   I                6
Number of basis functions                  I               30
Number of independent functions            I               30
Number of point charges in /Mol/           I                0
Number of translation vectors              I                0
Atomic numbers                             I   N=           1
          14
Nuclear charges                            R   N=           1
  1.40000000E+01
Current cartesian coordinates              R   N=           3
  0.00000000E+00  0.00000000E+00  0.00000000E+00
Number of symbols in /Mol/                 I                0
Int Atom Types                             I   N=           1
           0
Force Field                                I                0
Atom Types                                 C   N=           1
            
MM charges                                 R   N=           1
  0.00000000E+00
Integer atomic weights                     I   N=           1
          28
Real atomic weights                        R   N=           1
  2.79769284E+01
Atom fragment info                         I   N=           1
           0
Atom residue num                           I   N=           1
           0
Nuclear spins                              I   N=           1
           0
Nuclear ZEff                               R   N=           1
 -1.22500000E+01
Nuclear ZNuc                               R   N=           1
  1.40000000E+01
Nuclear QMom                               R   N=           1
  0.00000000E+00
Nuclear GFac                               R   N=           1
  0.00000000E+00
MicOpt                                     I   N=           1
          -1
Number of residues                         I                0
Number of secondary structures             I                0
SymInf integers                            I   N=          26
           1           8           1           1           1           1
          -1          -1          -1           1          -1          -1
          -1           1          -1          -1          -1          -1
           1           1           1          -1           1           1
           1          -1
RotTr to input orientation                 R   N=          12
  0.00000000E+00  0.00000000E+00 -1.00000000E+00  0.00000000E+00  1.00000000E+00
  0.00000000E+00  1.00000000E+00  0.00000000E+00  0.00000000E+00  0.00000000E+00
  0.00000000E+00  0.00000000E+00
Number of contracted shells                I               13
Number of primitive shells                 I               24
Pure/Cartesian d shells                    I                0
Pure/Cartesian f shells                    I                0
Highest angular momentum                   I                2
Largest degree of contraction              I                6
Shell types                                I   N=          13
           0           0           0           0           0           0
          -1           1           1           1           1           1
          -2
Number of primitives per shell             I   N=          13
           6           3           1           1           1           1
           1           4           2           1           1           1
           1
Shell to atom map                          I   N=          13
           1           1           1           1           1           1
           1           1           1           1           1           1
           1
Primitive exponents                        R   N=          24
  6.93792300E+04  1.03549400E+04  2.33387960E+03  6.57142950E+02  2.14301130E+02
  7.76291680E+01  7.76291680E+01  3.06308070E+01  1.28012950E+01  3.92686600E+00
  1.45234300E+00  2.56234000E-01  9.42790000E-02  3.31000000E-02  3.35483190E+02
  7.89003660E+01  2.49881500E+01  9.21971100E+00  3.62114000E+00  1.45131000E+00
  5.04977000E-01  1.86317000E-01  6.54320000E-02  4.50000000E-01
Contraction coefficients                   R   N=          24
  7.57000408E-04  5.93200320E-03  3.10880168E-02  1.24967067E-01  3.86897209E-01
  5.54888299E-01  1.77880945E-01  6.27764806E-01  2.47622924E-01  1.00000000E+00
  1.00000000E+00  1.00000000E+00  1.00000000E+00  1.00000000E+00  8.86599815E-03
  6.82989857E-02  2.90957939E-01  7.32116847E-01  6.19879440E-01  4.39148312E-01
  1.00000000E+00  1.00000000E+00  1.00000000E+00  1.00000000E+00
P(S=P) Contraction coefficients            R   N=          24
  0.00000000E+00  0.00000000E+00  0.00000000E+00  0.00000000E+00  0.00000000E+00
  0.00000000E+00  0.00000000E+00  0.00000000E+00  0.00000000E+00  0.00000000E+00
  0.00000000E+00  0.00000000E+00  0.00000000E+00  1.00000000E+00  0.00000000E+00
  0.00000000E+00  0.00000000E+00  0.00000000E+00  0.00000000E+00  0.00000000E+00
  0.00000000E+00  0.00000000E+00  0.00000000E+00  0.00000000E+00
Coordinates of each shell                  R   N=          39
  0.00000000E+00  0.00000000E+00  0.00000000E+00  0.00000000E+00  0.00000000E+00
  0.00000000E+00  0.00000000E+00  0.00000000E+00  0.00000000E+00  0.00000000E+00
  0.00000000E+00  0.00000000E+00  0.00000000E+00  0.00000000E+00  0.00000000E+00
  0.00000000E+00  0.00000000E+00  0.00000000E+00  0.00000000E+00  0.00000000E+00
  0.00000000E+00  0.00000000E+00  0.00000000E+00  0.00000000E+00  0.00000000E+00
  0.00000000E+00  0.00000000E+00  0.00000000E+00  0.00000000E+00  0.00000000E+00
  0.00000000E+00  0.00000000E+00  0.00000000E+00  0.00000000E+00  0.00000000E+00
  0.00000000E+00  0.00000000E+00  0.00000000E+00  0.00000000E+00
Num ILSW                                   I              100
ILSW                                       I   N=         100
           1           0           0           0           2           0
           0           0           0           0        1009          -1
           5           0           0           0           0           0
           0           0           0           0           0           0
           1           0           0           0           0           0
           0           0      100000           0          -1           0
           0           0           0           0           0           0
           0           0           0           1           0           0
           0 -2000000000           1           0           0           0
           0           1           4          52           0           0
           0           0          13           0           0           0
           0           0           0           1           0           1
           0           0           0           0           0           0
           0           0           0           0           0           0
           0           0           0           0           0           0
           0           0           0           0           0           0
           0           0           0           0
Num RLSW                                   I               52
RLSW                                       R   N=          52
  7.50000000E-01  7.50000000E-01  1.00000000E+00  1.00000000E+00  2.50000000E-01
  0.00000000E+00  0.00000000E+00  1.00000000E+00  0.00000000E+00  0.00000000E+00
  0.00000000E+00  0.00000000E+00  1.00000000E+00  0.00000000E+00  0.00000000E+00
  0.00000000E+00  0.00000000E+00  1.00000000E+00  0.00000000E+00  0.00000000E+00
  0.00000000E+00  0.00000000E+00  1.00000000E+00  0.00000000E+00  0.00000000E+00
  0.00000000E+00  0.00000000E+00  1.00000000E+00  0.00000000E+00  0.00000000E+00
  0.00000000E+00  0.00000000E+00  1.00000000E+00  0.00000000E+00  0.00000000E+00
  0.00000000E+00  0.00000000E+00  0.00000000E+00  1.00000000E+00  1.00000000E+00
  0.00000000E+00  1.00000000E+00  0.00000000E+00  0.00000000E+00  0.00000000E+00
  0.00000000E+00  0.00000000E+00  0.00000000E+00  0.00000000E+00  0.00000000E+00
  0.00000000E+00  0.00000000E+00
MxBond                                     I                1
NBond                                      I   N=           1
           0
IBond                                      I   N=           1
           0
RBond                                      R   N=           1
  0.00000000E+00
Virial Ratio                               R      2.001416914843805E+00
SCF Energy                                 R     -2.892506397148719E+02
Total Energy                               R     -2.892506397148719E+02
S**2                                       R      2.002545697669322E+00
S**2 after annihilation                    R      2.000000009576885E+00
RMS Density                                R      5.769703252043844E-09
Job Status                                 I                1
Nuclear derivative order                   I                0
External E-field                           R   N=          35
  0.00000000E+00  0.00000000E+00  0.00000000E+00  0.00000000E+00  0.00000000E+00
  0.00000000E+00  0.00000000E+00  0.00000000E+00  0.00000000E+00  0.00000000E+00
  0.00000000E+00  0.00000000E+00  0.00000000E+00  0.00000000E+00  0.00000000E+00
  0.00000000E+00  0.00000000E+00  0.00000000E+00  0.00000000E+00  0.00000000E+00
  0.00000000E+00  0.00000000E+00  0.00000000E+00  0.00000000E+00  0.00000000E+00
  0.00000000E+00  0.00000000E+00  0.00000000E+00  0.00000000E+00  0.00000000E+00
  0.00000000E+00  0.00000000E+00  0.00000000E+00  0.00000000E+00  0.00000000E+00
IOpCl                                      I                1
IROHF                                      I                0
Alpha Orbital Energies                     R   N=          30
 -6.62888283E+01 -5.36819046E+00 -3.70497796E+00 -3.70216106E+00 -3.70216106E+00
 -4.70102803E-01 -2.06435298E-01 -2.06435298E-01 -1.26383395E-01  1.71238878E-02
  4.77835884E-02  4.77835884E-02  5.15741839E-02  2.85987390E-01  2.85987390E-01
  2.90672519E-01  4.01817488E-01  5.64379698E-01  5.64379698E-01  5.69187927E-01
  5.69187927E-01  5.78620033E-01  1.21034154E+00  1.21034154E+00  1.21320814E+00
  5.23337166E+00  1.13231420E+01  1.13243280E+01  1.13243280E+01  1.40801981E+02
Beta Orbital Energies                      R   N=          30
 -6.62822370E+01 -5.36140727E+00 -3.70159529E+00 -3.68776610E+00 -3.68776610E+00
 -3.93199936E-01 -1.00575888E-01 -6.54345902E-02 -6.54345902E-02  4.30792712E-02
  6.72320008E-02  7.70897303E-02  7.70897303E-02  3.05574688E-01  3.26228797E-01
  3.26228797E-01  4.36557476E-01  6.09571216E-01  6.19587310E-01  6.19587310E-01
  6.53494477E-01  6.53494477E-01  1.22636256E+00  1.25574066E+00  1.25574066E+00
  5.25047386E+00  1.13284033E+01  1.13442782E+01  1.13442782E+01  1.40807949E+02
Alpha MO coefficients                      R   N=         900
  4.17753515E-01  6.46709096E-01  1.36180060E-02 -4.35389581E-03  1.71229485E-03
 -1.19024509E-03  3.91029659E-04  0.00000000E+00  0.00000000E+00  0.00000000E+00
  0.00000000E+00  0.00000000E+00  0.00000000E+00  0.00000000E+00  0.00000000E+00
  0.00000000E+00  0.00000000E+00  0.00000000E+00  0.00000000E+00  0.00000000E+00
  0.00000000E+00  0.00000000E+00  0.00000000E+00  0.00000000E+00  0.00000000E+00
  3.90917608E-06  0.00000000E+00  0.00000000E+00 -3.63584721E-16  0.00000000E+00
 -1.17120921E-01 -3.04935440E-01  5.39677858E-01  5.71491291E-01  5.15356243E-02
 -2.45403697E-02  7.42654076E-03  0.00000000E+00  0.00000000E+00  0.00000000E+00
  0.00000000E+00  0.00000000E+00  0.00000000E+00  0.00000000E+00  0.00000000E+00
  0.00000000E+00  0.00000000E+00  0.00000000E+00  0.00000000E+00  0.00000000E+00
  0.00000000E+00  0.00000000E+00  0.00000000E+00  0.00000000E+00  0.00000000E+00
  1.61071589E-04  0.00000000E+00  0.00000000E+00  5.31763517E-16  0.00000000E+00
  0.00000000E+00  0.00000000E+00  0.00000000E+00  0.00000000E+00  0.00000000E+00
  0.00000000E+00  0.00000000E+00  0.00000000E+00  0.00000000E+00 -2.21449644E-03
  0.00000000E+00  0.00000000E+00  4.02563223E-01  0.00000000E+00  0.00000000E+00
  6.90772869E-01  0.00000000E+00  0.00000000E+00  5.79466451E-02  0.00000000E+00
  0.00000000E+00 -8.59742196E-03  0.00000000E+00  0.00000000E+00  4.97383683E-03
  0.00000000E+00  0.00000000E+00  0.00000000E+00  0.00000000E+00  0.00000000E+00
  0.00000000E+00  0.00000000E+00  0.00000000E+00  0.00000000E+00  0.00000000E+00
  0.00000000E+00  0.00000000E+00  0.00000000E+00 -1.86785513E-03  0.00000000E+00
  0.00000000E+00  4.03753128E-01  0.00000000E+00  0.00000000E+00  6.90416067E-01
  0.00000000E+00  0.00000000E+00  5.62192965E-02  0.00000000E+00  0.00000000E+00
 -7.46811310E-03  0.00000000E+00  0.00000000E+00  4.23172060E-03  0.00000000E+00
  0.00000000E+00  0.00000000E+00  0.00000000E+00  0.00000000E+00  0.00000000E+00
  0.00000000E+00  0.00000000E+00  0.00000000E+00  0.00000000E+00  0.00000000E+00
  0.00000000E+00  0.00000000E+00 -1.86785513E-03  0.00000000E+00  0.00000000E+00
  4.03753128E-01  0.00000000E+00  0.00000000E+00  6.90416067E-01  0.00000000E+00
  0.00000000E+00  5.62192965E-02  0.00000000E+00  0.00000000E+00 -7.46811310E-03
  0.00000000E+00  0.00000000E+00  4.23172060E-03  0.00000000E+00  0.00000000E+00
  0.00000000E+00  0.00000000E+00  0.00000000E+00  0.00000000E+00  0.00000000E+00
  3.20462874E-02  8.78247708E-02 -1.97690363E-01 -3.46012712E-01  6.32674184E-01
  5.34506648E-01 -3.50720898E-03  0.00000000E+00  0.00000000E+00  0.00000000E+00
  0.00000000E+00  0.00000000E+00  0.00000000E+00  0.00000000E+00  0.00000000E+00
  0.00000000E+00  0.00000000E+00  0.00000000E+00  0.00000000E+00  0.00000000E+00
  0.00000000E+00  0.00000000E+00  0.00000000E+00  0.00000000E+00  0.00000000E+00
 -1.36015805E-02  0.00000000E+00  0.00000000E+00 -7.62622976E-17  0.00000000E+00
  0.00000000E+00  0.00000000E+00  0.00000000E+00  0.00000000E+00  0.00000000E+00
  0.00000000E+00  0.00000000E+00  0.00000000E+00  2.96512379E-02  0.00000000E+00
  0.00000000E+00 -9.55660074E-02  0.00000000E+00  0.00000000E+00 -1.67190095E-01
  0.00000000E+00  0.00000000E+00  2.06347057E-01  0.00000000E+00  0.00000000E+00
  5.76464335E-01  0.00000000E+00  0.00000000E+00  3.45937132E-01  0.00000000E+00
  0.00000000E+00  0.00000000E+00  0.00000000E+00  0.00000000E+00  0.00000000E+00
  0.00000000E+00  0.00000000E+00  0.00000000E+00  0.00000000E+00  0.00000000E+00
  0.00000000E+00  0.00000000E+00  2.96512379E-02  0.00000000E+00  0.00000000E+00
 -9.55660074E-02  0.00000000E+00  0.00000000E+00 -1.67190095E-01  0.00000000E+00
  0.00000000E+00  2.06347057E-01  0.00000000E+00  0.00000000E+00  5.76464335E-01
  0.00000000E+00  0.00000000E+00  3.45937132E-01  0.00000000E+00  0.00000000E+00
  0.00000000E+00  0.00000000E+00  0.00000000E+00  0.00000000E+00  0.00000000E+00
  0.00000000E+00  0.00000000E+00  0.00000000E+00  0.00000000E+00  0.00000000E+00
  0.00000000E+00  0.00000000E+00  0.00000000E+00  0.00000000E+00  8.43586257E-02
  0.00000000E+00  0.00000000E+00 -9.05196258E-02  0.00000000E+00  0.00000000E+00
 -1.58239397E-01  0.00000000E+00  0.00000000E+00  1.89660545E-01  0.00000000E+00
  0.00000000E+00  5.35132228E-01  0.00000000E+00  0.00000000E+00  3.64016662E-01
  0.00000000E+00  0.00000000E+00  0.00000000E+00  0.00000000E+00  0.00000000E+00
 -1.13126864E-02 -3.16405181E-02  7.71992410E-02  1.14699503E-01 -1.60901741E-01
 -1.11146150E+00  1.67250465E+00  0.00000000E+00  0.00000000E+00  0.00000000E+00
  0.00000000E+00  0.00000000E+00  0.00000000E+00  0.00000000E+00  0.00000000E+00
  0.00000000E+00  0.00000000E+00  0.00000000E+00  0.00000000E+00  0.00000000E+00
  0.00000000E+00  0.00000000E+00  0.00000000E+00  0.00000000E+00  0.00000000E+00
  1.87428165E-04  0.00000000E+00  0.00000000E+00 -3.26057416E-15  0.00000000E+00
  0.00000000E+00  0.00000000E+00  0.00000000E+00  0.00000000E+00  0.00000000E+00
  0.00000000E+00  0.00000000E+00  1.72609025E+00  0.00000000E+00  0.00000000E+00
  3.71377348E-02  0.00000000E+00  0.00000000E+00  6.94504767E-02  0.00000000E+00
  0.00000000E+00 -1.30943181E-01  0.00000000E+00  0.00000000E+00 -9.01756228E-02
  0.00000000E+00  0.00000000E+00 -1.03845597E+00  0.00000000E+00  0.00000000E+00
  0.00000000E+00  0.00000000E+00  0.00000000E+00  0.00000000E+00  0.00000000E+00
  0.00000000E+00  0.00000000E+00  0.00000000E+00  0.00000000E+00  0.00000000E+00
  0.00000000E+00  0.00000000E+00  0.00000000E+00  1.72609025E+00  0.00000000E+00
  0.00000000E+00  3.71377348E-02  0.00000000E+00  0.00000000E+00  6.94504767E-02
  0.00000000E+00  0.00000000E+00 -1.30943181E-01  0.00000000E+00  0.00000000E+00
 -9.01756228E-02  0.00000000E+00  0.00000000E+00 -1.03845597E+00  0.00000000E+00
  0.00000000E+00  0.00000000E+00  0.00000000E+00  0.00000000E+00  0.00000000E+00
  0.00000000E+00  0.00000000E+00  0.00000000E+00  0.00000000E+00  0.00000000E+00
  0.00000000E+00  0.00000000E+00  0.00000000E+00  0.00000000E+00  1.74003182E+00
  0.00000000E+00  0.00000000E+00  4.14644941E-02  0.00000000E+00  0.00000000E+00
  7.69102644E-02  0.00000000E+00  0.00000000E+00 -1.37302242E-01  0.00000000E+00
  0.00000000E+00 -1.12138999E-01  0.00000000E+00  0.00000000E+00 -1.08834934E+00
  0.00000000E+00  0.00000000E+00  0.00000000E+00  0.00000000E+00  0.00000000E+00
  0.00000000E+00  0.00000000E+00  0.00000000E+00  0.00000000E+00  0.00000000E+00
  0.00000000E+00  0.00000000E+00 -1.71805682E+00  0.00000000E+00  0.00000000E+00
  7.86007730E-02  0.00000000E+00  0.00000000E+00  1.22600961E-01  0.00000000E+00
  0.00000000E+00 -6.67911989E-02  0.00000000E+00  0.00000000E+00 -1.46230456E+00
  0.00000000E+00  0.00000000E+00  2.95336528E+00  0.00000000E+00  0.00000000E+00
  0.00000000E+00  0.00000000E+00  0.00000000E+00  0.00000000E+00  0.00000000E+00
  0.00000000E+00  0.00000000E+00  0.00000000E+00  0.00000000E+00  0.00000000E+00
  0.00000000E+00  0.00000000E+00  0.00000000E+00 -1.71805682E+00  0.00000000E+00
  0.00000000E+00  7.86007730E-02  0.00000000E+00  0.00000000E+00  1.22600961E-01
  0.00000000E+00  0.00000000E+00 -6.67911989E-02  0.00000000E+00  0.00000000E+00
 -1.46230456E+00  0.00000000E+00  0.00000000E+00  2.95336528E+00  0.00000000E+00
  0.00000000E+00  0.00000000E+00  0.00000000E+00  0.00000000E+00  0.00000000E+00
  0.00000000E+00  0.00000000E+00  0.00000000E+00  0.00000000E+00  0.00000000E+00
  0.00000000E+00  0.00000000E+00  0.00000000E+00  0.00000000E+00 -1.70471526E+00
  0.00000000E+00  0.00000000E+00  8.10517325E-02  0.00000000E+00  0.00000000E+00
  1.26337668E-01  0.00000000E+00  0.00000000E+00 -6.32800977E-02  0.00000000E+00
  0.00000000E+00 -1.49314853E+00  0.00000000E+00  0.00000000E+00  2.94070321E+00
  0.00000000E+00  0.00000000E+00  0.00000000E+00  0.00000000E+00  0.00000000E+00
 -3.05412834E-02 -8.08733321E-02  1.56081641E-01  5.27290044E-01 -2.66449009E+00
  3.39311256E+00 -1.40817962E+00  0.00000000E+00  0.00000000E+00  0.00000000E+00
  0.00000000E+00  0.00000000E+00  0.00000000E+00  0.00000000E+00  0.00000000E+00
  0.00000000E+00  0.00000000E+00  0.00000000E+00  0.00000000E+00  0.00000000E+00
  0.00000000E+00  0.00000000E+00  0.00000000E+00  0.00000000E+00  0.00000000E+00
 -4.81602239E-03  0.00000000E+00  0.00000000E+00  9.68789823E-15  0.00000000E+00
  0.00000000E+00  0.00000000E+00  0.00000000E+00  0.00000000E+00  0.00000000E+00
  0.00000000E+00  0.00000000E+00  0.00000000E+00  0.00000000E+00  0.00000000E+00
  0.00000000E+00  0.00000000E+00  0.00000000E+00  0.00000000E+00  0.00000000E+00
  0.00000000E+00  0.00000000E+00  0.00000000E+00  0.00000000E+00  0.00000000E+00
  0.00000000E+00  0.00000000E+00  0.00000000E+00  0.00000000E+00  0.00000000E+00
  0.00000000E+00  0.00000000E+00  0.00000000E+00  0.00000000E+00  1.00000000E+00
  2.67667888E-16  7.10981233E-16 -1.33271854E-15 -4.79904931E-15  2.58293705E-14
 -3.83217530E-14  2.04352712E-14  0.00000000E+00  0.00000000E+00  0.00000000E+00
  0.00000000E+00  0.00000000E+00  0.00000000E+00  0.00000000E+00  0.00000000E+00
  0.00000000E+00  0.00000000E+00  0.00000000E+00  0.00000000E+00  0.00000000E+00
  0.00000000E+00  0.00000000E+00  0.00000000E+00  0.00000000E+00  0.00000000E+00
 -2.50754167E-14  0.00000000E+00  0.00000000E+00  1.00000000E+00  0.00000000E+00
  0.00000000E+00  0.00000000E+00  0.00000000E+00  0.00000000E+00  0.00000000E+00
  0.00000000E+00  0.00000000E+00  0.00000000E+00  0.00000000E+00  0.00000000E+00
  0.00000000E+00  0.00000000E+00  0.00000000E+00  0.00000000E+00  0.00000000E+00
  0.00000000E+00  0.00000000E+00  0.00000000E+00  0.00000000E+00  0.00000000E+00
  0.00000000E+00  0.00000000E+00  0.00000000E+00  0.00000000E+00  0.00000000E+00
  0.00000000E+00  0.00000000E+00  1.00000000E+00  0.00000000E+00  0.00000000E+00
  0.00000000E+00  0.00000000E+00  0.00000000E+00  0.00000000E+00  0.00000000E+00
  0.00000000E+00  0.00000000E+00  0.00000000E+00  0.00000000E+00  0.00000000E+00
  0.00000000E+00  0.00000000E+00  0.00000000E+00  0.00000000E+00  0.00000000E+00
  0.00000000E+00  0.00000000E+00  0.00000000E+00  0.00000000E+00  0.00000000E+00
  0.00000000E+00  0.00000000E+00  0.00000000E+00  0.00000000E+00  0.00000000E+00
  0.00000000E+00  1.00000000E+00  0.00000000E+00  0.00000000E+00  0.00000000E+00
  4.07395548E-04  1.26188957E-03 -4.27769552E-03  2.57385047E-04 -5.71905953E-03
  2.48976714E-02 -7.49348139E-03  0.00000000E+00  0.00000000E+00  0.00000000E+00
  0.00000000E+00  0.00000000E+00  0.00000000E+00  0.00000000E+00  0.00000000E+00
  0.00000000E+00  0.00000000E+00  0.00000000E+00  0.00000000E+00  0.00000000E+00
  0.00000000E+00  0.00000000E+00  0.00000000E+00  0.00000000E+00  0.00000000E+00
  9.99895417E-01  0.00000000E+00  0.00000000E+00  2.54592106E-14  0.00000000E+00
  0.00000000E+00  0.00000000E+00  0.00000000E+00  0.00000000E+00  0.00000000E+00
  0.00000000E+00  0.00000000E+00  0.00000000E+00  8.17054039E-01  0.00000000E+00
  0.00000000E+00  1.79401583E-01  0.00000000E+00  0.00000000E+00  4.07356476E-01
  0.00000000E+00  0.00000000E+00 -2.00273846E+00  0.00000000E+00  0.00000000E+00
  2.46116007E+00  0.00000000E+00  0.00000000E+00 -1.81029495E+00  0.00000000E+00
  0.00000000E+00  0.00000000E+00  0.00000000E+00  0.00000000E+00  0.00000000E+00
  0.00000000E+00  0.00000000E+00  0.00000000E+00  0.00000000E+00  0.00000000E+00
  0.00000000E+00  0.00000000E+00  8.17054039E-01  0.00000000E+00  0.00000000E+00
  1.79401583E-01  0.00000000E+00  0.00000000E+00  4.07356476E-01  0.00000000E+00
  0.00000000E+00 -2.00273846E+00  0.00000000E+00  0.00000000E+00  2.46116007E+00
  0.00000000E+00  0.00000000E+00 -1.81029495E+00  0.00000000E+00  0.00000000E+00
  0.00000000E+00  0.00000000E+00  0.00000000E+00  0.00000000E+00  0.00000000E+00
  0.00000000E+00  0.00000000E+00  0.00000000E+00  0.00000000E+00  0.00000000E+00
  0.00000000E+00  0.00000000E+00  0.00000000E+00  0.00000000E+00  8.11588517E-01
  0.00000000E+00  0.00000000E+00  1.80731793E-01  0.00000000E+00  0.00000000E+00
  4.09496853E-01  0.00000000E+00  0.00000000E+00 -2.00397479E+00  0.00000000E+00
  0.00000000E+00  2.45103550E+00  0.00000000E+00  0.00000000E+00 -1.79801188E+00
  0.00000000E+00  0.00000000E+00  0.00000000E+00  0.00000000E+00  0.00000000E+00
  1.11758401E-01  4.18237707E-01 -2.35754008E+00  2.67545575E+00 -1.59614255E+00
  1.12991524E+00 -3.67544285E-01  0.00000000E+00  0.00000000E+00  0.00000000E+00
  0.00000000E+00  0.00000000E+00  0.00000000E+00  0.00000000E+00  0.00000000E+00
  0.00000000E+00  0.00000000E+00  0.00000000E+00  0.00000000E+00  0.00000000E+00
  0.00000000E+00  0.00000000E+00  0.00000000E+00  0.00000000E+00  0.00000000E+00
 -9.47293868E-04  0.00000000E+00  0.00000000E+00 -4.42555642E-16  0.00000000E+00
  0.00000000E+00  0.00000000E+00  0.00000000E+00  0.00000000E+00  0.00000000E+00
  0.00000000E+00  0.00000000E+00  0.00000000E+00  0.00000000E+00  2.19665713E-01
  0.00000000E+00  0.00000000E+00 -1.19203004E+00  0.00000000E+00  0.00000000E+00
  1.37259891E+00  0.00000000E+00  0.00000000E+00 -1.02393861E+00  0.00000000E+00
  0.00000000E+00  7.52485246E-01  0.00000000E+00  0.00000000E+00 -4.83312453E-01
  0.00000000E+00  0.00000000E+00  0.00000000E+00  0.00000000E+00  0.00000000E+00
  0.00000000E+00  0.00000000E+00  0.00000000E+00  0.00000000E+00  0.00000000E+00
  0.00000000E+00  0.00000000E+00  2.19654974E-01  0.00000000E+00  0.00000000E+00
 -1.19174140E+00  0.00000000E+00  0.00000000E+00  1.37309074E+00  0.00000000E+00
  0.00000000E+00 -1.02383701E+00  0.00000000E+00  0.00000000E+00  7.52446101E-01
  0.00000000E+00  0.00000000E+00 -4.83316320E-01  0.00000000E+00  0.00000000E+00
  0.00000000E+00  0.00000000E+00  0.00000000E+00  0.00000000E+00  0.00000000E+00
  0.00000000E+00  0.00000000E+00  0.00000000E+00  0.00000000E+00  0.00000000E+00
  0.00000000E+00  0.00000000E+00  0.00000000E+00  2.19654974E-01  0.00000000E+00
  0.00000000E+00 -1.19174140E+00  0.00000000E+00  0.00000000E+00  1.37309074E+00
  0.00000000E+00  0.00000000E+00 -1.02383701E+00  0.00000000E+00  0.00000000E+00
  7.52446101E-01  0.00000000E+00  0.00000000E+00 -4.83316320E-01  0.00000000E+00
  0.00000000E+00  0.00000000E+00  0.00000000E+00  0.00000000E+00  0.00000000E+00
 -1.54886032E+00  1.85518726E+00 -1.23419790E+00  7.73588077E-01 -3.30284351E-01
  2.29751725E-01 -7.55592273E-02  0.00000000E+00  0.00000000E+00  0.00000000E+00
  0.00000000E+00  0.00000000E+00  0.00000000E+00  0.00000000E+00  0.00000000E+00
  0.00000000E+00  0.00000000E+00  0.00000000E+00  0.00000000E+00  0.00000000E+00
  0.00000000E+00  0.00000000E+00  0.00000000E+00  0.00000000E+00  0.00000000E+00
 -4.29984340E-06  0.00000000E+00  0.00000000E+00  1.55679542E-17  0.00000000E+00
Beta MO coefficients                       R   N=         900
  4.17802634E-01  6.46699724E-01  1.35140041E-02 -4.29988172E-03  1.70110826E-03
 -1.17672864E-03  3.87025658E-04  0.00000000E+00  0.00000000E+00  0.00000000E+00
  0.00000000E+00  0.00000000E+00  0.00000000E+00  0.00000000E+00  0.00000000E+00
  0.00000000E+00  0.00000000E+00  0.00000000E+00  0.00000000E+00  0.00000000E+00
  0.00000000E+00  0.00000000E+00  0.00000000E+00  0.00000000E+00  0.00000000E+00
  5.89306378E-07  0.00000000E+00  0.00000000E+00  6.76179936E-16  0.00000000E+00
 -1.17056394E-01 -3.04756544E-01  5.38564688E-01  5.73196359E-01  5.01513125E-02
 -2.43174709E-02  7.32280311E-03  0.00000000E+00  0.00000000E+00  0.00000000E+00
  0.00000000E+00  0.00000000E+00  0.00000000E+00  0.00000000E+00  0.00000000E+00
  0.00000000E+00  0.00000000E+00  0.00000000E+00  0.00000000E+00  0.00000000E+00
  0.00000000E+00  0.00000000E+00  0.00000000E+00  0.00000000E+00  0.00000000E+00
  8.58274308E-04  0.00000000E+00  0.00000000E+00  6.22896349E-16  0.00000000E+00
  0.00000000E+00  0.00000000E+00  0.00000000E+00  0.00000000E+00  0.00000000E+00
  0.00000000E+00  0.00000000E+00  0.00000000E+00  0.00000000E+00 -2.40666658E-03
  0.00000000E+00  0.00000000E+00  4.02279489E-01  0.00000000E+00  0.00000000E+00
  6.90898721E-01  0.00000000E+00  0.00000000E+00  5.84408493E-02  0.00000000E+00
  0.00000000E+00 -9.31219585E-03  0.00000000E+00  0.00000000E+00  5.38389994E-03
  0.00000000E+00  0.00000000E+00  0.00000000E+00  0.00000000E+00  0.00000000E+00
  0.00000000E+00  0.00000000E+00  0.00000000E+00  0.00000000E+00  0.00000000E+00
  0.00000000E+00  0.00000000E+00 -2.24529654E-03  0.00000000E+00  0.00000000E+00
  4.02736151E-01  0.00000000E+00  0.00000000E+00  6.91389380E-01  0.00000000E+00
  0.00000000E+00  5.64587673E-02  0.00000000E+00  0.00000000E+00 -8.77945874E-03
  0.00000000E+00  0.00000000E+00  5.03142586E-03  0.00000000E+00  0.00000000E+00
  0.00000000E+00  0.00000000E+00  0.00000000E+00  0.00000000E+00  0.00000000E+00
  0.00000000E+00  0.00000000E+00  0.00000000E+00  0.00000000E+00  0.00000000E+00
  0.00000000E+00  0.00000000E+00  0.00000000E+00 -2.24529654E-03  0.00000000E+00
  0.00000000E+00  4.02736151E-01  0.00000000E+00  0.00000000E+00  6.91389380E-01
  0.00000000E+00  0.00000000E+00  5.64587673E-02  0.00000000E+00  0.00000000E+00
 -8.77945874E-03  0.00000000E+00  0.00000000E+00  5.03142586E-03  0.00000000E+00
  0.00000000E+00  0.00000000E+00  0.00000000E+00  0.00000000E+00  0.00000000E+00
  3.24582349E-02  8.94437153E-02 -2.05675141E-01 -3.40678106E-01  6.48782502E-01
  5.03389070E-01  1.59802001E-02  0.00000000E+00  0.00000000E+00  0.00000000E+00
  0.00000000E+00  0.00000000E+00  0.00000000E+00  0.00000000E+00  0.00000000E+00
  0.00000000E+00  0.00000000E+00  0.00000000E+00  0.00000000E+00  0.00000000E+00
  0.00000000E+00  0.00000000E+00  0.00000000E+00  0.00000000E+00  0.00000000E+00
  3.57464459E-02  0.00000000E+00  0.00000000E+00  4.83139371E-17  0.00000000E+00
  0.00000000E+00  0.00000000E+00  0.00000000E+00  0.00000000E+00  0.00000000E+00
  0.00000000E+00  0.00000000E+00  0.00000000E+00  0.00000000E+00  9.62658319E-02
  0.00000000E+00  0.00000000E+00 -9.11550063E-02  0.00000000E+00  0.00000000E+00
 -1.59792176E-01  0.00000000E+00  0.00000000E+00  2.01281063E-01  0.00000000E+00
  0.00000000E+00  5.15582698E-01  0.00000000E+00  0.00000000E+00  3.67596039E-01
  0.00000000E+00  0.00000000E+00  0.00000000E+00  0.00000000E+00  0.00000000E+00
  0.00000000E+00  0.00000000E+00  0.00000000E+00  0.00000000E+00  0.00000000E+00
  0.00000000E+00  0.00000000E+00  0.00000000E+00  1.64999201E-01  0.00000000E+00
  0.00000000E+00 -8.63657566E-02  0.00000000E+00  0.00000000E+00 -1.50323621E-01
  0.00000000E+00  0.00000000E+00  1.91554160E-01  0.00000000E+00  0.00000000E+00
  4.67335468E-01  0.00000000E+00  0.00000000E+00  3.71347891E-01  0.00000000E+00
  0.00000000E+00  0.00000000E+00  0.00000000E+00  0.00000000E+00  0.00000000E+00